! TOUCHSTONE file generated by CST MICROWAVE STUDIO
! Date and time: Sat Apr 12 14:27:18 2025
! Project name: X波段窗片重构-标准输入.cst
! Parameters = {L=6; PIN=3100; a=20; b=10; blendraduis=2.85; d=5; s=4; ta=16.03; tb=10.61; trh=1.69; wr=11.49; wt=0.91}
! Header version: 2018
! Port assignment regex: !\s*Touchstone port\s*([0-9]+)\s*=\s*(CST MWS port|CST DS port)\s*([0-9]+|Zmin|Zmax)\s*\(\"(.*)\"\)(\s*mode\s*([0-9]+))?.*
! Touchstone port assignment:
! Touchstone port 1 = CST MWS port 1 ("")
! Touchstone port 2 = CST MWS port 2 ("")
! S-Parameters are not renormalized. Unphysical impedance of 0 will be written to the file.
# GHz S MA R 0
5.5                 0.0788533793     -179.492558      0.455423831    0.0330486215      0.455458396    0.0330671327     0.0775622553     -179.483679
5.5014              0.0786419122     -179.495453        0.4557473    0.0296060739      0.455777414    0.0294768895     0.0773484908     -179.485693
5.5028              0.0784330962     -179.498247      0.456074111    0.0263941739      0.456100007    0.0261297311     0.0771371873     -179.487706
5.5042              0.0782269034     -179.500945      0.456404291    0.0234090695      0.456426204    0.0230215795     0.0769283193     -179.489719
5.5056              0.0780233064     -179.503553      0.456737866    0.0206468564      0.456756031    0.0201483057     0.0767218616     -179.491731
5.507               0.0778222781     -179.506077      0.457074864    0.0181035787      0.457089517    0.0175057305     0.0765177896     -179.493744
5.5084              0.0776237919     -179.508521       0.45741531    0.0157752295      0.457426686    0.0150896252     0.0763160789     -179.495759
5.5098              0.0774278218     -179.510892       0.45775923    0.0136577519      0.457767567    0.0128957129     0.0761167059     -179.497776
5.5112               0.077234342     -179.513193       0.45810665    0.0117470399      0.458112184     0.010919669     0.0759196472     -179.499796
5.5126              0.0770433272     -179.515432      0.458457595     0.010038939      0.458460563   0.00915712283     0.0757248801     -179.501819
5.514               0.0768547527     -179.517611       0.45881209   0.00852924754       0.45881273   0.00760365786     0.0755323821     -179.503846
5.5154               0.076668594     -179.519736       0.45917016   0.00721371751      0.459168709   0.00625481345     0.0753421313     -179.505878
5.5168              0.0764848271     -179.521812       0.45953183   0.00608805569      0.459528524   0.00510608574     0.0751541061     -179.507916
5.5182              0.0763034284     -179.523843      0.459897124   0.00514792474        0.4598922    0.0041529288     0.0749682854     -179.509959
5.5196              0.0761243747     -179.525834      0.460266066   0.00438894438       0.46025976   0.00339075588     0.0747846485     -179.512008
5.521               0.0759476433     -179.527788      0.460638679   0.00380669264      0.460631227   0.00281494066     0.0746031751     -179.514065
5.5224              0.0757732117     -179.529709      0.461014987   0.00339670712      0.461006623   0.00242081852     0.0744238454     -179.516128
5.5238              0.0756010581     -179.531602      0.461395012    0.0031544863      0.461385971   0.00220368792     0.0742466398       -179.5182
5.5252              0.0754311608     -179.533471      0.461778779   0.00307549101      0.461769292   0.00215881174     0.0740715393     -179.520279
5.5266              0.0752634987     -179.535318      0.462166308   0.00315514579      0.462156607   0.00228141873      0.073898525     -179.522367
5.528               0.0750980509     -179.537149      0.462557622   0.00338884046      0.462547937   0.00256670498     0.0737275788     -179.524464
5.5294              0.0749347971     -179.538965      0.462952742   0.00377193167      0.462943303    0.0030098354     0.0735586826      -179.52657
5.5308              0.0747737171      -179.54077      0.463351691   0.00429974449      0.463342723   0.00360594532     0.0733918188     -179.528685
5.5322              0.0746147915     -179.542569      0.463754488   0.00496757414      0.463746217   0.00435014205     0.0732269702     -179.530811
5.5336              0.0744580008     -179.544362      0.464161155   0.00577068769      0.464153804   0.00523750654       0.07306412     -179.532946
5.535               0.0743033262     -179.546154      0.464571712   0.00670432589      0.464565501   0.00626309508     0.0729032516     -179.535092
5.5364              0.0741507492     -179.547948      0.464986179   0.00776370501      0.464981326   0.00742194099     0.0727443489     -179.537248
5.5378              0.0740002517     -179.549745      0.465404575   0.00894401877      0.465401296   0.00870905645      0.072587396     -179.539415
5.5392              0.0738518158     -179.551549      0.465826919    0.0102404403      0.465825428    0.0101194343     0.0724323776     -179.541592
5.5406              0.0737054241     -179.553362      0.466253231    0.0116481243      0.466253737    0.0116480498     0.0722792784     -179.543781
5.542               0.0735610597     -179.555185      0.466683528    0.0131622088      0.466686239    0.0132898627     0.0721280838     -179.545981
5.5434              0.0734187057     -179.557023      0.467117829    0.0147778178      0.467122948    0.0150398193     0.0719787792     -179.548191
5.5448               0.073278346     -179.558875      0.467556152    0.0164900631      0.467563879    0.0168928539     0.0718313504     -179.550413
5.5462              0.0731399644     -179.560746      0.467998513    0.0182940469      0.468009044    0.0188438914     0.0716857838     -179.552646
5.5476              0.0730035455     -179.562635      0.468444929    0.0201848637      0.468458458    0.0208878494     0.0715420658      -179.55489
5.549                0.072869074     -179.564545      0.468895418    0.0221576032      0.468912132    0.0230196398     0.0714001833     -179.557145
5.5504               0.072736535     -179.566478      0.469349994    0.0242073525      0.469370079    0.0252341715     0.0712601235     -179.559411
5.5518              0.0726059139     -179.568435      0.469808674    0.0263291985      0.469832309    0.0275263524     0.0711218737     -179.561688
5.5532              0.0724771966     -179.570417      0.470271473    0.0285182307      0.470298833    0.0298910916     0.0709854218     -179.563976
5.5546              0.0723503692     -179.572426      0.470738406    0.0307695437      0.470769661    0.0323233019     0.0708507559     -179.566275
5.556               0.0722254184     -179.574462      0.471209486    0.0330782399      0.471244803     0.034817902     0.0707178644     -179.568584
5.5574              0.0721023309     -179.576528      0.471684729    0.0354394323      0.471724267    0.0373698191      0.070586736     -179.570903
5.5588               0.071981094     -179.578623      0.472164148    0.0378482473      0.472208061    0.0399739909     0.0704573597     -179.573233
5.5602              0.0718616952     -179.580748      0.472647756    0.0402998271      0.472696194    0.0426253686     0.0703297248     -179.575572
5.5616              0.0717441226     -179.582905      0.473135565    0.0427893335      0.473188672    0.0453189193     0.0702038209     -179.577921
5.563               0.0716283644     -179.585094      0.473627589    0.0453119498      0.473685502    0.0480496283      0.070079638     -179.580279
5.5644              0.0715144092     -179.587315      0.474123838    0.0478628845       0.47418669    0.0508125019     0.0699571661     -179.582646
5.5658               0.071402246     -179.589569      0.474624326     0.050437374       0.47469224    0.0536025704      0.069836396     -179.585022
5.5672              0.0712918642     -179.591855      0.475129062    0.0530306856      0.475202157    0.0564148901     0.0697173182     -179.587405
5.5686              0.0711832535     -179.594175      0.475638057     0.055638121      0.475716446    0.0592445467     0.0695999239     -179.589797
5.57                0.0710764039     -179.596528      0.476151322    0.0582550189       0.47623511    0.0620866578     0.0694842046     -179.592195
5.5714              0.0709713058     -179.598915      0.476668867    0.0608767586      0.476758152    0.0649363757     0.0693701517     -179.594601
5.5728              0.0708679499     -179.601334      0.477190701    0.0634987627      0.477285575    0.0677888903     0.0692577574     -179.597013
5.5742              0.0707663274     -179.603787      0.477716833     0.066116501      0.477817379    0.0706394324     0.0691470138      -179.59943
5.5756              0.0706664297     -179.606272      0.478247272    0.0687254932      0.478353567    0.0734832761     0.0690379134     -179.601853
5.577               0.0705682486     -179.608789      0.478782026    0.0713213122      0.478894139     0.076315742     0.0689304492     -179.604281
5.5784              0.0704717763     -179.611338      0.479321103    0.0738995877      0.479439095    0.0791322006     0.0688246141     -179.606713
5.5798              0.0703770054     -179.613918       0.47986451    0.0764560092      0.479988435    0.0819280749     0.0687204016     -179.609148
5.5812              0.0702839287     -179.616529      0.480412254    0.0789863294      0.480542158    0.0846988437     0.0686178054     -179.611586
5.5826              0.0701925394     -179.619169      0.480964342    0.0814863675      0.481100263     0.087440045     0.0685168194     -179.614027
5.584               0.0701028313     -179.621839      0.481520781    0.0839520126      0.481662748    0.0901472787     0.0684174379     -179.616468
5.5854              0.0700147982     -179.624536      0.482081575    0.0863792268      0.482229611    0.0928162103     0.0683196554     -179.618911
5.5868              0.0699284345      -179.62726      0.482646731    0.0887640487      0.482800849    0.0954425741     0.0682234667     -179.621354
5.5882               0.069843735     -179.630011      0.483216253    0.0911025964      0.483376458    0.0980221761      0.068128867     -179.623796
5.5896              0.0697606947     -179.632785      0.483790147    0.0933910714      0.483956436     0.100550898     0.0680358517     -179.626236
5.591                0.069679309     -179.635584      0.484368415    0.0956257608      0.484540777       0.1030247     0.0679444165     -179.628674
5.5924              0.0695995738     -179.638405      0.484951063    0.0978030418      0.485129479     0.105439624     0.0678545573     -179.631109
5.5938              0.0695214853     -179.641246      0.485538095    0.0999193837      0.485722535     0.107791798     0.0677662704     -179.633541
5.5952              0.0694450401     -179.644107      0.486129512     0.101971352      0.486319941     0.110077438     0.0676795525     -179.635967
5.5966              0.0693702352     -179.646985      0.486725318     0.103955611      0.486921692     0.112292855     0.0675944003     -179.638387
5.598               0.0692970679      -179.64988      0.487325516     0.105868927       0.48752778     0.114434451     0.0675108111     -179.640801
5.5994              0.0692255359      -179.65279      0.487930107     0.107708171      0.488138202     0.116498733     0.0674287822     -179.643207
5.6008              0.0691556374     -179.655712      0.488539094     0.109470323      0.488752949     0.118482306     0.0673483115     -179.645605
5.6022               0.069087371     -179.658645      0.489152478     0.111152472      0.489372016     0.120381884      0.067269397     -179.647994
5.6036              0.0690207355     -179.661588       0.48977026     0.112751824      0.489995395     0.122194289      0.067192037     -179.650371
5.605               0.0689557302     -179.664538      0.490392441     0.114265698      0.490623079     0.123916458     0.0671162303     -179.652738
5.6064               0.068892355     -179.667494      0.491019022     0.115691535      0.491255062     0.125545444     0.0670419758     -179.655092
5.6078              0.0688306099     -179.670453      0.491650003     0.117026897      0.491891336     0.127078419     0.0669692728     -179.657432
5.6092              0.0687704955     -179.673414      0.492285385      0.11826947      0.492531893     0.128512681     0.0668981208     -179.659758
5.6106              0.0687120127     -179.676373      0.492925166     0.119417068      0.493176726     0.129845652     0.0668285199     -179.662068
5.612                0.068655163     -179.679331      0.493569347     0.120467634      0.493825827     0.131074886     0.0667604701     -179.664362
5.6134              0.0685999482     -179.682283      0.494217926     0.121419243      0.494479188     0.132198071     0.0666939721     -179.666638
5.6148              0.0685463705     -179.685228      0.494870904     0.122270102      0.495136801     0.133213031     0.0666290267     -179.668895
5.6162              0.0684944326     -179.688164      0.495528279     0.123018558       0.49579866     0.134117731     0.0665656351     -179.671132
5.6176              0.0684441376     -179.691089      0.496190049     0.123663092      0.496464755     0.134910279     0.0665037988     -179.673349
5.619               0.0683954891     -179.693999      0.496856214     0.124202326       0.49713508     0.135588928     0.0664435197     -179.675543
5.6204              0.0683484911     -179.696894      0.497526771     0.124635025      0.497809626     0.136152083        0.0663848     -179.677713
5.6218              0.0683031481      -179.69977      0.498201719     0.124960097      0.498488387     0.136598299     0.0663276422      -179.67986
5.6232              0.0682594649     -179.702626      0.498881057     0.125176593      0.499171355     0.136926288     0.0662720491     -179.681981
5.6246               0.068217447     -179.705458      0.499564782     0.125283711      0.499858523     0.137134917     0.0662180241     -179.684075
5.626               0.0681771003     -179.708265      0.500252893     0.125280798      0.500549884     0.137223218     0.0661655707     -179.686141
5.6274               0.068138431     -179.711044      0.500945387     0.125167347      0.501245432     0.137190381     0.0661146927     -179.688179
5.6288               0.068101446     -179.713793      0.501642263     0.124943004       0.50194516     0.137035765     0.0660653946     -179.690187
5.6302              0.0680661526     -179.716509      0.502343518     0.124607561      0.502649062     0.136758894     0.0660176809     -179.692163
5.6316              0.0680325587     -179.719191      0.503049151     0.124160965      0.503357133     0.136359463     0.0659715568     -179.694107
5.633               0.0680006724     -179.721835       0.50375916     0.123603313      0.504069367     0.135837337     0.0659270275     -179.696018
5.6344              0.0679705028      -179.72444      0.504473544     0.122934855       0.50478576     0.135192556      0.065884099     -179.697894
5.6358               0.067942059     -179.727003        0.5051923     0.122155991      0.505506307     0.134425332     0.0658427773     -179.699735
5.6372              0.0679153509     -179.729522      0.505915427     0.121267277      0.506231004     0.133536056     0.0658030691     -179.701539
5.6386               0.067890389     -179.731994      0.506642925     0.120269419      0.506959849     0.132525292     0.0657649814     -179.703305
5.64                0.0678671842     -179.734418      0.507374791     0.119163276      0.507692838     0.131393786     0.0657285214     -179.705033
5.6414              0.0678457479     -179.736791      0.508111026     0.117949859      0.508429969      0.13014246     0.0656936971     -179.706721
5.6428              0.0678260923     -179.739111       0.50885163      0.11663033      0.509171241     0.128772414     0.0656605165     -179.708368
5.6442              0.0678082298     -179.741376      0.509596601     0.115206002      0.509916653     0.127284931     0.0656289884     -179.709973
5.6456              0.0677921736     -179.743583      0.510345941     0.113678336      0.510666206     0.125681468     0.0655991218     -179.711535
5.647               0.0677779376     -179.745731       0.51109965     0.112048944      0.511419899     0.123963665     0.0655709263     -179.713053
5.6484               0.067765536     -179.747818       0.51185773     0.110319585      0.512177734     0.122133338     0.0655444116     -179.714527
5.6498              0.0677549838     -179.749842      0.512620183     0.108492161      0.512939715      0.12019248     0.0655195884     -179.715955
5.6512              0.0677462965       -179.7518      0.513387011     0.106568722      0.513705844     0.118143261     0.0654964675     -179.717337
5.6526              0.0677394904     -179.753692      0.514158217     0.104551458      0.514476125     0.115988023     0.0654750601     -179.718672
5.654               0.0677345822     -179.755515      0.514933805       0.1024427      0.515250564     0.113729284     0.0654553781     -179.719958
5.6554              0.0677315893     -179.757269       0.51571378     0.100244919      0.516029167      0.11136973     0.0654374339     -179.721196
5.6568              0.0677305298      -179.75895      0.516498146    0.0979607172      0.516811943     0.108912217     0.0654212402     -179.722384
5.6582              0.0677314225     -179.760558       0.51728691    0.0955928345      0.517598898     0.106359763     0.0654068103     -179.723522
5.6596              0.0677342868     -179.762092      0.518080079    0.0931441389      0.518390043     0.103715553     0.0653941581     -179.724609
5.661               0.0677391429      -179.76355      0.518877662    0.0906176258      0.519185389     0.100982925      0.065383298     -179.725645
5.6624              0.0677460115     -179.764931      0.519679665    0.0880164147      0.519984949    0.0981653779     0.0653742448     -179.726629
5.6638              0.0677549141     -179.766235      0.520486101    0.0853437451      0.520788735    0.0952665565      0.065367014      -179.72756
5.6652               0.067765873     -179.767459       0.52129698    0.0826029737      0.521596763    0.0922902543     0.0653616216     -179.728439
5.6666              0.0677789111     -179.768603      0.522112314    0.0797975692      0.522409049    0.0892404058     0.0653580842     -179.729265
5.668               0.0677940522     -179.769667      0.522932118    0.0769311094      0.523225612    0.0861210816     0.0653564189     -179.730037
5.6694              0.0678113209      -179.77065      0.523756405    0.0740072755       0.52404647     0.082936483     0.0653566434     -179.730755
5.6708              0.0678307422     -179.771551      0.524585193    0.0710298484      0.524871645     0.079690936     0.0653587762      -179.73142
5.6722              0.0678523423      -179.77237      0.525418498    0.0680027032       0.52570116    0.0763888853     0.0653628361     -179.732031
5.6736              0.0678761482     -179.773107      0.526256341     0.064929804      0.526535039    0.0730348869     0.0653688429     -179.732588
5.675               0.0679021873     -179.773762      0.527098741    0.0618151986      0.527373308    0.0696336021     0.0653768168     -179.733091
5.6764              0.0679304884     -179.774336      0.527945722    0.0586630129      0.528215995     0.066189789     0.0653867787      -179.73354
5.6778              0.0679610809     -179.774827      0.528797308    0.0554774444       0.52906313    0.0627082958     0.0653987501     -179.733936
5.6792              0.0679939949     -179.775237      0.529653523    0.0522627564      0.529914746     0.059194052     0.0654127535     -179.734279
5.6806              0.0680292616     -179.775567      0.530514397    0.0490232713      0.530770875    0.0556520599     0.0654288117     -179.734569
5.682               0.0680669133     -179.775816      0.531379958    0.0457633636      0.531631554    0.0520873864     0.0654469485     -179.734806
5.6834              0.0681069828     -179.775987      0.532250238     0.042487453      0.532496822     0.048505153     0.0654671884     -179.734992
5.6848              0.0681495042     -179.776079       0.53312527    0.0391999969      0.533366717    0.0449105269     0.0654895566     -179.735127
5.6862              0.0681945124     -179.776095      0.534005091    0.0359054826      0.534241283    0.0413087108     0.0655140791     -179.735211
5.6876              0.0682420435     -179.776035      0.534889737    0.0326084196      0.535120564    0.0377049327     0.0655407826     -179.735246
5.689               0.0682921343     -179.775902      0.535779248    0.0293133311      0.536004607    0.0341044353     0.0655696949     -179.735233
5.6904               0.068344823     -179.775696      0.536673668    0.0260247453      0.536893462    0.0305124653     0.0656008442     -179.735172
5.6918              0.0684001487     -179.775421      0.537573039     0.022747187      0.537787181    0.0269342619     0.0656342601     -179.735065
5.6932              0.0684581515     -179.775078       0.53847741    0.0194851681      0.538685817    0.0233750454     0.0656699726     -179.734913
5.6946              0.0685188728      -179.77467      0.539386828    0.0162431782      0.539589427    0.0198400056     0.0657080129     -179.734717
5.696               0.0685823552     -179.774198      0.540301346    0.0130256749      0.540498071    0.0163342892     0.0657484129     -179.734479
5.6974              0.0686486423     -179.773666      0.541221018    0.0098370741      0.541411812    0.0128629877     0.0657912056     -179.734201
5.6988              0.0687177791     -179.773078        0.5421459   0.00668173928      0.542330712   0.00943112463     0.0658364251     -179.733884
5.7002              0.0687898117     -179.772434      0.543076051   0.00356397129       0.54325484   0.00604364283     0.0658841062      -179.73353
5.7016              0.0688647876      -179.77174      0.544011534  0.000487997485      0.544184265   0.00270539095     0.0659342849     -179.733141
5.703               0.0689427556     -179.770999      0.544952413  -0.00254203929       0.54511906 -0.000578889704     0.0659869984      -179.73272
5.7044              0.0690237658     -179.770213      0.545898754  -0.00552209195      0.546059301  -0.00380457881     0.0660422847     -179.732267
5.7058              0.0691078699     -179.769388      0.546850628  -0.00844822061      0.547005065  -0.00696719074     0.0661001832     -179.731787
5.7072              0.0691951207     -179.768526      0.547808108   -0.0113166042      0.547956433   -0.0100623885     0.0661607342      -179.73128
5.7086              0.0692855729     -179.767633      0.548771267   -0.0141235525      0.548913489   -0.0130859977     0.0662239795      -179.73075
5.71                0.0693792824     -179.766712      0.549740185   -0.0168655177      0.549876319   -0.0160340206     0.0662899619       -179.7302
5.7114              0.0694763069     -179.765769      0.550714941   -0.0195391069      0.550845012   -0.0189026504     0.0663587255     -179.729631
5.7128              0.0695767057     -179.764807      0.551695619   -0.0221410943      0.551819659   -0.0216882853     0.0664303158     -179.729048
5.7142              0.0696805398     -179.763831      0.552682305   -0.0246684331      0.552800356   -0.0243875429     0.0665047796     -179.728452
5.7156              0.0697878718     -179.762847      0.553675088   -0.0271182682      0.553787199   -0.0269972737     0.0665821651     -179.727847
5.717               0.0698987664      -179.76186      0.554674058   -0.0294879483      0.554780288   -0.0295145759      0.066662522     -179.727237
5.7184                0.07001329     -179.760875      0.555679309   -0.0317750383      0.555779724   -0.0319368085     0.0667459014     -179.726625
5.7198               0.070131511     -179.759896      0.556690938   -0.0339773312      0.556785613   -0.0342616054      0.066832356     -179.726013
5.7212              0.0702534999     -179.758931      0.557709043   -0.0360928603      0.557798061   -0.0364868884     0.0669219402     -179.725406
5.7226              0.0703793291     -179.757983      0.558733725   -0.0381199109      0.558817178   -0.0386108805     0.0670147099     -179.724807
5.724               0.0705090733      -179.75706      0.559765087   -0.0400570319      0.559843074   -0.0406321181     0.0671107228      -179.72422
5.7254              0.0706428097     -179.756165      0.560803236   -0.0419030472      0.560875864   -0.0425494637     0.0672100384     -179.723648
5.7268              0.0707806176     -179.755307      0.561848278   -0.0436570662      0.561915662   -0.0443621167      0.067312718     -179.723096
5.7282              0.0709225788     -179.754489      0.562900324   -0.0453184941      0.562962587    -0.046069625     0.0674188249     -179.722567
5.7296              0.0710687777     -179.753718      0.563959484   -0.0468870422      0.564016756   -0.0476718947     0.0675284244     -179.722065
5.731               0.0712193016     -179.752999      0.565025872   -0.0483627368       0.56507829   -0.0491691996     0.0676415838     -179.721594
5.7324              0.0713742403      -179.75234      0.566099603   -0.0497459274      0.566147311   -0.0505621898     0.0677583726     -179.721159
5.7338              0.0715336868     -179.751744      0.567180792   -0.0510372949      0.567223941   -0.0518518989     0.0678788626     -179.720762
5.7352               0.071697737     -179.751218      0.568269556   -0.0522378581      0.568308304   -0.0530397501      0.068003128     -179.720409
5.7366                0.07186649     -179.750768      0.569366014    -0.053348979      0.569400524   -0.0541275616     0.0681312454     -179.720103
5.738               0.0720400486     -179.750399      0.570470285   -0.0543723683      0.570500726   -0.0551175499     0.0682632939     -179.719848
5.7394              0.0722185188     -179.750116      0.571582488   -0.0553100879      0.571609035    -0.056012332     0.0683993555     -179.719648
5.7408              0.0724020105     -179.749925      0.572702743   -0.0561645534      0.572725575    -0.056814926     0.0685395148     -179.719507
5.7422              0.0725906374      -179.74983       0.57383117   -0.0569385344      0.573850471   -0.0575287493     0.0686838594     -179.719429
5.7436              0.0727845175     -179.749837      0.574967889   -0.0576351535      0.574983846   -0.0581576161       0.06883248     -179.719418
5.745                0.072983773      -179.74995      0.576113018   -0.0582578831      0.576125823   -0.0587057316     0.0689854705     -179.719478
5.7464              0.0731885307     -179.750174      0.577266676   -0.0588105413      0.577276524   -0.0591776848     0.0691429283     -179.719611
5.7478              0.0733989223     -179.750512      0.578428981   -0.0592972845      0.578436068   -0.0595784384     0.0693049543     -179.719821
5.7492              0.0736150845     -179.750968      0.579600048   -0.0597225985      0.579604573   -0.0599133168      0.069471653     -179.720112
5.7506              0.0738371594     -179.751545      0.580779991   -0.0600912878      0.580782154    -0.060187991      0.069643133     -179.720487
5.752               0.0740652949     -179.752248      0.581968923   -0.0604084614      0.581968923   -0.0604084607      0.069819507     -179.720948
5.7534              0.0742996448     -179.753077      0.583166953   -0.0606795164      0.583164991   -0.0605810339     0.0700008921     -179.721498
5.7548              0.0745403692     -179.754036      0.584374189   -0.0609101194      0.584370462   -0.0607123029     0.0701874099      -179.72214
5.7562              0.0747876351     -179.755126      0.585590733   -0.0611061844       0.58558544   -0.0608091176      0.070379187     -179.722876
5.7576              0.0750416167     -179.756348      0.586816686   -0.0612738481      0.586810021   -0.0608785549      0.070576355     -179.723707
5.759               0.0753024956     -179.757704      0.588052145   -0.0614194415        0.5880443   -0.0609278855     0.0707790509     -179.724635
5.7604              0.0755704615     -179.759192      0.589297202   -0.0615494592      0.589288363   -0.0609645361     0.0709874177     -179.725662
5.7618              0.0758457128     -179.760813      0.590551944   -0.0616705249      0.590542294   -0.0609960489     0.0712016041     -179.726787
5.7632              0.0761284569     -179.762567      0.591816454   -0.0617893534       0.59180617    -0.061030037     0.0714217655     -179.728012
5.7646              0.0764189108      -179.76445      0.593090809   -0.0619127092      0.593080061   -0.0610741363      0.071648064     -179.729337
5.766                0.076717302     -179.766462      0.594375081   -0.0620473625      0.594364031   -0.0611359535     0.0718806689     -179.730761
5.7674              0.0770238687     -179.768599      0.595669336   -0.0622000401      0.595658138   -0.0612230108     0.0721197574     -179.732283
5.7688               0.077338861     -179.770859      0.596973632   -0.0623773748      0.596962432   -0.0613426863     0.0723655145     -179.733903
5.7702              0.0776625414     -179.773237      0.598288024   -0.0625858498      0.598276956    -0.061502152     0.0726181341     -179.735618
5.7716              0.0779951856     -179.775728      0.599612556   -0.0628317411      0.599601746   -0.0617083075     0.0728778192     -179.737426
5.773               0.0783370834     -179.778329      0.600947268   -0.0631210561      0.600936828   -0.0619677111     0.0731447829     -179.739326
5.7744              0.0786885399     -179.781033      0.602292192   -0.0634594698      0.602282223    -0.062286508     0.0734192483     -179.741313
5.7758              0.0790498761     -179.783833      0.603647352   -0.0638522584      0.603637942   -0.0626703567     0.0737014499     -179.743384