! TOUCHSTONE file generated by CST MICROWAVE STUDIO
! Date and time: Tue Apr 22 17:26:06 2025
! Project name: X≤®∂Œºπ≤®µº—È÷§.cst
! Parameters = {L=10; a=20; b=10; d=5; s=4}
! Header version: 2018
! Port assignment regex: !\s*Touchstone port\s*([0-9]+)\s*=\s*(CST MWS port|CST DS port)\s*([0-9]+|Zmin|Zmax)\s*\(\"(.*)\"\)(\s*mode\s*([0-9]+))?.*
! Touchstone port assignment:
! Touchstone port 1 = CST MWS port 1 ("")
! Touchstone port 2 = CST MWS port 2 ("")
! S-Parameters are not renormalized. Unphysical impedance of 0 will be written to the file.
# GHz S MA R 0
5.8                 0.0530270338            -180      0.812204123  6.22762153e-12      0.812204003  6.23025427e-12     0.0553312898             180
5.80104             0.0537337757      179.983996      0.813148699   0.00167463261      0.813148601    0.0016926478     0.0560960168      -179.99872
5.80208             0.0544651067      179.969439       0.81408608   0.00224105187      0.814086033     0.002275272     0.0568907241     -179.996857
5.80312             0.0552229223      179.956685      0.815013264   0.00174045777      0.815013296   0.00178886246     0.0577175496     -179.994285
5.80416             0.0560093475       179.94607      0.815927149  0.000233964094      0.815927285  0.000294353294     0.0585788658      -179.99089
5.8052              0.0568267641      179.937902      0.816824556  -0.00219639259      0.816824812  -0.00212636387     0.0594773091     -179.986576
5.80624              0.057677841      179.932446      0.817702247  -0.00544686191      0.817702638  -0.00536964442     0.0604158123     -179.981276
5.80728             0.0585655667      179.929917      0.818556961  -0.00939148504      0.818557496  -0.00930959166     0.0613976412     -179.974954
5.80832             0.0594932866      179.930464      0.819385437   -0.0138819973      0.819386119   -0.0137979548     0.0624264359     -179.967618
5.80936             0.0604647425      179.934152      0.820184454   -0.0187482557      0.820185279    -0.018664552     0.0635062571      -179.95933
5.8104              0.0614841165      179.940951      0.820950857   -0.0237993537      0.820951818   -0.0237183806     0.0646416379     -179.950214
5.81144             0.0625560802      179.950716      0.821681597   -0.0288256246       0.82168268   -0.0287496158     0.0658376432     -179.940467
5.81248             0.0636858471      179.963171      0.822373759   -0.0336017831      0.822374944   -0.0335327492     0.0670999371     -179.930365
5.81352             0.0648792322      179.977897      0.823024586   -0.0378915071      0.823025849   -0.0378311667     0.0684348599     -179.920277
5.81456             0.0661427176      179.994313      0.823631491    -0.041453818      0.823632803   -0.0414035274     0.0698495181     -179.910661
5.8156               0.067483527     -179.988326      0.824192044   -0.0440516698      0.824193372   -0.0440123527     0.0713518903     -179.902069
5.81664             0.0689097115     -179.970935       0.82470393   -0.0454631963      0.824705238   -0.0454352765      0.072950955     -179.895139
5.81768             0.0704302513     -179.954587      0.825164849   -0.0454960761      0.825166101   -0.0454794172     0.0746568469     -179.890573
5.81872             0.0720551794     -179.940492      0.825572346   -0.0440054193      0.825573504   -0.0439992775     0.0764810552      -179.88911
5.81976             0.0737957401     -179.929951      0.825923517   -0.0409154297      0.825924549   -0.0409184261     0.0784366808     -179.891473
5.8208              0.0756645989     -179.924288      0.826214573   -0.0362447676      0.826215448   -0.0362548909     0.0805387806       -179.8983
5.82184             0.0776761322     -179.924744      0.826440166   -0.0301349503      0.826440861   -0.0301496007     0.0828048406     -179.910037
5.82288             0.0798468446     -179.932327      0.826592415    -0.022880131      0.826592919   -0.0228962188     0.0852554433     -179.926808
5.82392             0.0821959834     -179.947623      0.826659521   -0.0149550009      0.826659835   -0.0149691152     0.0879152292     -179.948245
5.82496             0.0847464668     -179.970536      0.826623821  -0.00703508765      0.826623961  -0.00704374761     0.0908143063     -179.973293
5.826               0.0875263061            -180      0.826459124  1.78546793e-11      0.826459124  1.78545858e-11     0.0939903433             180
5.82704             0.0905708018      179.966346      0.826127107    0.0050953142      0.826127017   0.00510646551     0.0974917096      179.974656
5.82808             0.0939259526      179.932434      0.825572534     0.007104092       0.82557242   0.00712765362      0.101382211      179.954827
5.82912             0.0976537425      179.903886      0.824717053   0.00495961011      0.824716989    0.0049950562       0.10574825      179.945579
5.83016               0.10184031      179.887716      0.823451325  -0.00201803068      0.823451384  -0.00197350433      0.110709652      179.952152
5.8312               0.106608463       179.89123      0.821625411   -0.0136236013      0.821625649   -0.0135753348       0.11643595      179.978295
5.83224              0.112136556      179.919471      0.819037559   -0.0280356298       0.81903799   -0.0279912015      0.123170718     -179.976783
5.83328               0.11868634      179.970474      0.815421671   -0.0409279753      0.815422242   -0.0408958006      0.131267677      -179.92309
5.83432              0.126642808     -179.971911      0.810431601   -0.0449503223      0.810432172   -0.0449363338      0.141244814     -179.885012
5.83536              0.136570601     -179.944855      0.803605209   -0.0314946422      0.803605573   -0.0314963806      0.153872934     -179.901068
5.8364               0.149306468            -180      0.794214702  5.90089276e-11      0.794214708  5.90086919e-11      0.170368666             180
5.83744              0.166221987      179.855188      0.780584759    0.0170815318      0.780584601    0.0171108896      0.193052897      179.883168
5.83848              0.190524042      179.814538       0.75731702    -0.056970068      0.757317338   -0.0569207625      0.228346787      -179.99374
5.83952              0.234149275            -180      0.707303669  1.86843815e-10      0.707303727  1.86842182e-10       0.30038853             180
5.84056              0.332881354            -180      0.472234096  9.41597488e-10      0.472233709  9.41584389e-10       0.65284435             180
5.8416               0.420936942      121.991615       0.90709117         23.4224      0.907090999       23.422397      0.420937248      104.852844
5.84264               0.29366582      110.969447      0.955908148      15.2224743      0.955908148      15.2224742       0.29366582      99.4755016
5.84368              0.238645528      106.241958       0.97094055      11.5620997      0.970940616      11.5621009      0.238724655      96.9860945
5.84472              0.206311347      103.281284      0.978486626      9.31095606      0.978486592      9.31095584      0.206311371      95.3405084
5.84576               0.18410738      101.191923      0.982999432      7.70685152      0.982999291      7.70685644      0.184123143       94.140461
5.8468               0.167688235       99.646363       0.98590737      6.47257551      0.985907207      6.47258783      0.167740832      93.2338887
5.84784              0.154993792      98.4464619      0.987900259      5.47704904      0.987900146      5.47706692      0.155067426      92.5171246
5.84888               0.14484316      97.4665764      0.989354781      4.64656895      0.989354748      4.64658917      0.144919392      91.9196315
5.84992              0.136496934      96.6301676      0.990480825      3.93535378       0.99048087      3.93537346      0.136564251      91.3974242
5.85096              0.129471251      95.8920651      0.991395673      3.31328059      0.991395774      3.31329779      0.129524798      90.9249424
5.852                0.123440138      95.2259453      0.992165398      2.75976905      0.992165529      2.75978278      0.123479344      90.4880904
5.85304              0.118178503      94.6163271      0.992828044        2.260348       0.99282818      2.26035801      0.118205003      90.0793669
5.85408              0.113527157      94.0537723      0.993406437      1.80458618      0.993406556      1.80459275      0.113543445      89.6948107
5.85512              0.109370802      93.5321292      0.993915168      1.38478993      0.993915255      1.38479363      0.109379469      89.3322189
5.85616                0.1056239       93.047002       0.99436436     0.995159399      0.994364406     0.995160919      0.105627274      88.9901702
5.8572                0.10222149       92.594929      0.994761668     0.631229936      0.994761669     0.631230002       0.10222149      88.6675255
5.85824             0.0991131152      92.1729579      0.995113321     0.289495643      0.995113275     0.289494924     0.0991112355      88.3631975
5.85928             0.0962587587      91.7784376      0.995424659    -0.032848426      0.995424568   -0.0328493523     0.0962561019      88.0760649
5.86032             0.0936260721      91.4089226      0.995700396    -0.338085463      0.995700265    -0.338086127     0.0936234104      87.8049575
5.86136             0.0911884616      91.0621351      0.995944759    -0.628103308      0.995944593     -0.62810335     0.0911862996      87.5486733
5.8624              0.0889237401      90.7359525       0.99616155    -0.904484935      0.996161355    -0.904484099     0.0889223728      87.3060058
5.86344             0.0868131606      90.4284056      0.996354188      -1.1685742      0.996353969     -1.16857232     0.0868127238      87.0757714
5.86448             0.0848407114      90.1376779      0.996525732     -1.42152434      0.996525495     -1.42152134     0.0848412229      86.8568323
5.86552             0.0829925909      89.8621056      0.996678907     -1.66433432      0.996678658     -1.66433017     0.0829939846       86.648113
5.86656             0.0812568109       89.600174      0.996816126     -1.89787645      0.996815869     -1.89787119     0.0812589623      86.4486116
5.8676               0.079622889      89.3505121      0.996939512      -2.1229178      0.996939253     -2.12291149     0.0796256364      86.2574058
5.86864             0.0780816088      89.1118853      0.997050929     -2.34013688      0.997050669     -2.34012962     0.0780847686      86.0736552
5.86968             0.0766248276      88.8831869      0.997151998     -2.55013702      0.997151742     -2.55012892     0.0766282063         85.8966
5.87072             0.0752453212      88.6634285      0.997244129     -2.75345712      0.997243879     -2.75344832     0.0752487241      85.7255584
5.87176              0.073936657        88.45173      0.997328543     -2.95058044        0.9973283     -2.95057106      0.073939895      85.5599222
5.8728              0.0726930883      88.2473105      0.997406289     -3.14194185      0.997406055     -3.14193202     0.0726959822      85.3991513
5.87384             0.0715094664      88.0494778       0.99747827      -3.3279339      0.997478046     -3.32792376     0.0715118503      85.2427683
5.87488             0.0703811657      87.8576201      0.997545261     -3.50891198      0.997545048     -3.50890164      0.070382889      85.0903526
5.87592             0.0693040205      87.6711971      0.997607923     -3.68519864      0.997607721     -3.68518821     0.0693049496      84.9415349
5.87696             0.0682742708      87.4897322       0.99766682     -3.85708731      0.997666628      -3.8570769     0.0682742889      84.7959914
5.878               0.0672885152      87.3128053       0.99772243     -4.02484557       0.99772225     -4.02483527      0.067287523      84.6534389
5.87904             0.0663436703      87.1400465      0.997775162     -4.18871792      0.997774992     -4.18870782     0.0663415858      84.5136303
5.88008             0.0654369362      86.9711295       0.99782536      -4.3489282        0.9978252     -4.34891837     0.0654336936      84.3763498
5.88112             0.0645657647      86.8057671      0.997873317     -4.50568174      0.997873166     -4.50567224     0.0645613142      84.2414092
5.88216             0.0637278332       86.643706      0.997919279     -4.65916724      0.997919136     -4.65915812     0.0637221399      84.1086446
5.8832              0.0629210207      86.4847228      0.997963455     -4.80955841       0.99796332     -4.80954971     0.0629140635       83.977913
5.88424              0.062143387      86.3286201       0.99800602     -4.95701543      0.998005892     -4.95700719     0.0621351578      83.8490894
5.88528             0.0613931545      86.1752233      0.998047122     -5.10168626      0.998047001     -5.10167851     0.0613836567      83.7220649
5.88632             0.0606686917      86.0243778      0.998086887     -5.24370781      0.998086771     -5.24370055     0.0606579397      83.5967438
5.88736             0.0599684989      85.8759463      0.998125418     -5.38320691      0.998125307     -5.38320017     0.0599565165      83.4730423
5.8884              0.0592911954      85.7298067      0.998162806     -5.52030129      0.998162699     -5.52029507     0.0592780151      83.3508868
5.88944              0.058635508      85.5858501      0.998199124     -5.65510037       0.99819902     -5.65509467     0.0586211699      83.2302119
5.89048              0.058000261      85.4439788      0.998234437       -5.787706      0.998234336     -5.78770082     0.0579848119      83.1109601
5.89152             0.0573843673      85.3041054      0.998268797     -5.91821313      0.998268698     -5.91820846     0.0573678595      82.9930798
5.89256             0.0567868197      85.1661511      0.998302251     -6.04671039      0.998302154     -6.04670622     0.0567693104      82.8765249
5.8936              0.0562066843      85.0300444      0.998334838     -6.17328063      0.998334742     -6.17327695     0.0561882347       82.761254
5.89464             0.0556430935      84.8957207      0.998366593     -6.29800142      0.998366497     -6.29799821     0.0556237682      82.6472294
5.89568             0.0550952405      84.7631209      0.998397543     -6.42094545      0.998397448     -6.42094268     0.0550751065       82.534417
5.89672             0.0545623739      84.6321908      0.998427716     -6.54218095      0.998427621     -6.54217861     0.0545415002      82.4227852
5.89776             0.0540437929      84.5028807      0.998457135     -6.66177205      0.998457039     -6.66177011     0.0540222498      82.3123051
5.8988               0.053538843      84.3751445      0.998485819     -6.77977907      0.998485722     -6.77977752     0.0535167018      82.2029495
5.89984             0.0530469126      84.2489395      0.998513787     -6.89625885       0.99851369     -6.89625766     0.0530242447      82.0946933
5.90088             0.0525674289      84.1242256      0.998541058     -7.01126501      0.998540959     -7.01126416     0.0525443056      81.9875125
5.90192             0.0520998551      84.0009655      0.998567646     -7.12484817      0.998567546     -7.12484764     0.0520763472      81.8813846
5.90296             0.0516436874      83.8791238      0.998593566      -7.2370562      0.998593465     -7.23705595     0.0516198649      81.7762882
5.904               0.0511984526      83.7586673      0.998618834     -7.34793439      0.998618731      -7.3479344     0.0511743843      81.6722026
5.90504             0.0507637055      83.6395643      0.998643463     -7.45752565      0.998643359     -7.45752591     0.0507394587       81.569108
5.90608              0.050339027      83.5217845      0.998667466      -7.5658707       0.99866736     -7.56587117     0.0503146674      81.4669853
5.90712              0.049924022      83.4052991      0.998690856     -7.67300818      0.998690749     -7.67300885     0.0498996133      81.3658159
5.90816             0.0495183176      83.2900803      0.998713647     -7.77897482      0.998713538     -7.77897567     0.0494939215      81.2655819
5.9092              0.0491215617      83.1761015       0.99873585     -7.88380557      0.998735739     -7.88380657     0.0490972376      81.1662657
5.91024             0.0487334212       83.063337      0.998757479      -7.9875337      0.998757366     -7.98753483     0.0487092262      81.0678501
5.91128             0.0483535808      82.9517617      0.998778545     -8.09019092      0.998778431     -8.09019216     0.0483295698      80.9703184
5.91232             0.0479817419      82.8413516      0.998799061     -8.19180748      0.998798946     -8.19180881     0.0479579671      80.8736542
5.91336             0.0476176213      82.7320831      0.998819039     -8.29241226      0.998818923     -8.29241368     0.0475941323      80.7778413
5.9144              0.0472609502      82.6239335      0.998838492     -8.39203288      0.998838375     -8.39203435     0.0472377941       80.682864
5.91544             0.0469114731      82.5168805      0.998857432     -8.49069571      0.998857314     -8.49069722     0.0468886944      80.5887066
5.91648             0.0465689472      82.4109024      0.998875871     -8.58842602      0.998875752     -8.58842757     0.0465465878      80.4953541
5.91752             0.0462331415      82.3059779       0.99889382     -8.68524802      0.998893701     -8.68524958     0.0462112406      80.4027913
5.91856             0.0459038358      82.2020864      0.998911293      -8.7811849      0.998911173     -8.78118646     0.0458824301      80.3110035
5.9196              0.0455808204      82.0992077        0.9989283      -8.8762589       0.99892818     -8.87626046     0.0455599439      80.2199763
5.92064             0.0452638951      81.9973217      0.998944854      -8.9704914      0.998944734     -8.97049293     0.0452435794      80.1296953
5.92168             0.0449528688      81.8964093      0.998960967      -9.0639029      0.998960846      -9.0639044      0.044933143      80.0401467
5.92272             0.0446475592      81.7964512      0.998976649     -9.15651312      0.998976529     -9.15651458     0.0446284499      79.9513166
5.92376             0.0443477918      81.6974288      0.998991913     -9.24834104      0.998991793     -9.24834245     0.0443293232      79.8631915
5.9248              0.0440533996      81.5993239       0.99900677      -9.3394049      0.999006651     -9.33940625     0.0440355936      79.7757581
5.92584             0.0437642228      81.5021186      0.999021231     -9.42972229      0.999021113     -9.42972358     0.0437470992      79.6890035
5.92688             0.0434801086      81.4057951      0.999035307     -9.51931015       0.99903519     -9.51931136     0.0434636848      79.6029149
5.92792             0.0432009101      81.3103364      0.999049009      -9.6081848      0.999048893     -9.60818593     0.0431852015      79.5174796
5.92896             0.0429264868      81.2157256      0.999062349       -9.696362      0.999062233     -9.69636305     0.0429115067      79.4326854
5.93                0.0426567036      81.1219459      0.999075335     -9.78385694      0.999075221      -9.7838579     0.0426424634      79.3485202
5.93104             0.0423914309      81.0289813      0.999087979     -9.87068431      0.999087867     -9.87068518     0.0423779401      79.2649721
5.93208             0.0421305442      80.9368157      0.999100291      -9.9568583       0.99910018     -9.95685907     0.0421178105      79.1820297
5.93312             0.0418739239      80.8454336      0.999112281     -10.0423926      0.999112172     -10.0423933     0.0418619531      79.0996814
5.93416             0.0416214547      80.7548196      0.999123958     -10.1273005      0.999123851      -10.127301     0.0416102512      79.0179163
5.9352              0.0413730261      80.6649588      0.999135333     -10.2115947      0.999135228     -10.2115952     0.0413625924      78.9367234
5.93624             0.0411285312      80.5758364      0.999146413     -10.2952878      0.999146311     -10.2952881     0.0411188686       78.856092
5.93728             0.0408878675       80.487438       0.99915721     -10.3783917      0.999157109     -10.3783919     0.0408789758      78.7760118
5.93832             0.0406509361      80.3997495       0.99916773      -10.460918      0.999167633     -10.4609181     0.0406428135      78.6964726
5.93936             0.0404176414       80.312757      0.999177984     -10.5428781      0.999177889     -10.5428781     0.0404102852      78.6174643
5.9404              0.0401878915      80.2264472       0.99918798     -10.6242828      0.999187887     -10.6242827     0.0401812975      78.5389772
5.94144             0.0399615977      80.1408065      0.999197725     -10.7051428      0.999197635     -10.7051426     0.0399557607      78.4610019
5.94248             0.0397386743      80.0558222      0.999207228     -10.7854684      0.999207141     -10.7854681     0.0397335879      78.3835289
5.94352             0.0395190385      79.9714814      0.999216497     -10.8652695      0.999216413     -10.8652691     0.0395146954      78.3065493
5.94456             0.0393026104      79.8877718      0.999225539     -10.9445559      0.999225458     -10.9445554     0.0392990023      78.2300541
5.9456              0.0390893129      79.8046811      0.999234362     -11.0233369      0.999234284     -11.0233363     0.0390864306      78.1540346
5.94664             0.0388790711      79.7221975      0.999242972     -11.1016217      0.999242898      -11.101621     0.0388769047      78.0784824
5.94768              0.038671813      79.6403092      0.999251377     -11.1794192      0.999251306     -11.1794184     0.0386703516      78.0033893
5.94872             0.0384674686      79.5590048      0.999259584      -11.256738      0.999259516     -11.2567371     0.0384667009      77.9287471
5.94976             0.0382659703      79.4782733      0.999267599     -11.3335865      0.999267535     -11.3335855     0.0382658842       77.854548
5.9508              0.0380672528      79.3981037      0.999275428     -11.4099728      0.999275367     -11.4099717     0.0380678355      77.7807842
5.95184             0.0378712527      79.3184853      0.999283078     -11.4859051       0.99928302     -11.4859039     0.0378724909      77.7074483
5.95288             0.0376779084      79.2394076      0.999290554     -11.5613908        0.9992905     -11.5613895     0.0376797886       77.634533
5.95392             0.0374871607      79.1608606      0.999297863     -11.6364377      0.999297812     -11.6364363     0.0374896684      77.5620312
5.95496             0.0372989517      79.0828341      0.999305009      -11.711053      0.999304963     -11.7110515     0.0373020725      77.4899357
5.956               0.0371132257      79.0053185      0.999311999     -11.7852438      0.999311956     -11.7852423     0.0371169446        77.41824
5.95704             0.0369299283      78.9283042      0.999318837     -11.8590172      0.999318798     -11.8590156       0.03693423      77.3469372
5.95808             0.0367490071      78.8517819      0.999325529     -11.9323799      0.999325494     -11.9323782     0.0367538759      77.2760211
5.95912             0.0365704108      78.7757426      0.999332079     -12.0053384      0.999332048     -12.0053366     0.0365758311      77.2054852
5.96016             0.0363940901      78.7001772      0.999338493     -12.0778993      0.999338465     -12.0778975     0.0364000458      77.1353233
5.9612              0.0362199969      78.6250772      0.999344774     -12.1500689       0.99934475     -12.1500669     0.0362264717      77.0655296
5.96224             0.0360480843       78.550434      0.999350927     -12.2218532      0.999350907     -12.2218511     0.0360550619      76.9960981
5.96328              0.035878307      78.4762393      0.999356957     -12.2932582       0.99935694     -12.2932561     0.0358857711      76.9270232
5.96432             0.0357106211      78.4024851      0.999362867     -12.3642897      0.999362854     -12.3642876     0.0357185549      76.8582992
5.96536             0.0355449835      78.3291634      0.999368662     -12.4349535      0.999368653     -12.4349513     0.0355533706      76.7899207
5.9664              0.0353813527      78.2562665      0.999374345     -12.5052551       0.99937434     -12.5052529     0.0353901765      76.7218824
5.96744             0.0352196882      78.1837868       0.99937992        -12.5752      0.999379918     -12.5751977      0.035228932      76.6541792
5.96848             0.0350599506       78.111717       0.99938539     -12.6447934      0.999385393      -12.644791     0.0350695978       76.586806
5.96952             0.0349021017      78.0400498       0.99939076     -12.7140404      0.999390766      -12.714038     0.0349121357      76.5197578
5.97056              0.034746104      77.9687782      0.999396031     -12.7829463      0.999396041     -12.7829438     0.0347565084      76.4530299
5.9716              0.0345919215      77.8978954      0.999401208     -12.8515158      0.999401222     -12.8515132     0.0346026797      76.3866175
5.97264             0.0344395187      77.8273946      0.999406294     -12.9197538      0.999406311     -12.9197513     0.0344506146      76.3205161
5.97368             0.0342888614      77.7572693      0.999411291     -12.9876651      0.999411311     -12.9876625     0.0343002787      76.2547213
5.97472             0.0341399161       77.687513      0.999416202     -13.0552543      0.999416226     -13.0552516     0.0341516387      76.1892285
5.97576             0.0339926501      77.6181195       0.99942103     -13.1225258      0.999421058     -13.1225231     0.0340046621      76.1240337
5.9768              0.0338470318      77.5490828      0.999425778     -13.1894841      0.999425809     -13.1894814     0.0338593175      76.0591326
5.97784             0.0337030303      77.4803968      0.999430448     -13.2561335      0.999430482     -13.2561308      0.033715574      75.9945212
5.97888             0.0335606153      77.4120558      0.999435042     -13.3224783       0.99943508     -13.3224755     0.0335734017      75.9301955
5.97992             0.0334197576      77.3440539      0.999439564     -13.3885225      0.999439605     -13.3885196     0.0334327714      75.8661515
5.98096             0.0332804285      77.2763858      0.999444014     -13.4542702      0.999444059     -13.4542673     0.0332936548      75.8023857
5.982                  0.0331426      77.2090459      0.999448396     -13.5197253      0.999448444     -13.5197224     0.0331560241      75.7388941
5.98304             0.0330062451       77.142029      0.999452712     -13.5848918      0.999452763     -13.5848889     0.0330198523      75.6756733
5.98408             0.0328713371      77.0753299      0.999456963     -13.6497734      0.999457017     -13.6497704     0.0328851131      75.6127196
5.98512             0.0327378502      77.0089435      0.999461151     -13.7143739      0.999461209     -13.7143709     0.0327517809      75.5500297
5.98616              0.032605759       76.942865      0.999465279     -13.7786968      0.999465339     -13.7786938     0.0326198307      75.4876002
5.9872               0.032475039      76.8770894      0.999469347     -13.8427458      0.999469411     -13.8427428      0.032489238      75.4254277
5.98824             0.0323456661      76.8116121      0.999473358     -13.9065243      0.999473425     -13.9065213     0.0323599791       75.363509
5.98928             0.0322176168      76.7464285      0.999477314     -13.9700358      0.999477384     -13.9700327     0.0322320308       75.301841
5.99032             0.0320908682       76.681534      0.999481216     -14.0332836      0.999481289     -14.0332805     0.0321053703      75.2404205
5.99136             0.0319653979      76.6169244      0.999485065     -14.0962711      0.999485141     -14.0962679     0.0319799757      75.1792447
5.9924               0.031841184      76.5525953      0.999488863     -14.1590013      0.999488942     -14.1589982     0.0318558252      75.1183104
5.99344             0.0317182052      76.4885425      0.999492612     -14.2214775      0.999492693     -14.2214744     0.0317328978      75.0576148
5.99448             0.0315964407      76.4247619      0.999496312     -14.2837028      0.999496396     -14.2836997     0.0316111731      74.9971551
5.99552             0.0314758701      76.3612496      0.999499965     -14.3456803      0.999500052     -14.3456771     0.0314906307      74.9369285
5.99656             0.0313564735      76.2980016      0.999503573     -14.4074128      0.999503662     -14.4074096     0.0313712513      74.8769323
5.9976              0.0312382314      76.2350142      0.999507135     -14.4689034      0.999507228     -14.4689001     0.0312530155      74.8171637
5.99864             0.0311211249      76.1722835      0.999510655     -14.5301548       0.99951075     -14.5301516     0.0311359047      74.7576203
5.99968             0.0310051353      76.1098059      0.999514132     -14.5911699       0.99951423     -14.5911667     0.0310199005      74.6982995
6.00072             0.0308902445       76.047578      0.999517568     -14.6519516      0.999517668     -14.6519483      0.030904985      74.6391987
6.00176             0.0307764347      75.9855961      0.999520964     -14.7125023      0.999521066     -14.7124991     0.0307911409      74.5803155
6.0028              0.0306636886       75.923857      0.999524321     -14.7728249      0.999524425     -14.7728217      0.030678351      74.5216475
6.00384             0.0305519891      75.8623572      0.999527639      -14.832922      0.999527746     -14.8329187     0.0305665985      74.4631923
6.00488             0.0304413197      75.8010935       0.99953092      -14.892796      0.999531029     -14.8927927     0.0304558672      74.4049476