! TOUCHSTONE file generated by CST MICROWAVE STUDIO
! Date and time: Tue Apr 22 20:26:09 2025
! Project name: X脊波导与矩形波导过渡.cst
! Parameters = {LDR=13; LR=13; Ltransport1=10.6077; Ltransport2=10.6077; a=20; ar=28.499; atransport1=22.7825; atransport2=26.4702; b=10; br=12.624; btransport1=10.7274; btransport2=11.4031; d=5; dtransport1=6.55669; dtransport2=9.40392; psi=0.65; s=4; stransport1=4; stransport2=4}
! Header version: 2018
! Port assignment regex: !\s*Touchstone port\s*([0-9]+)\s*=\s*(CST MWS port|CST DS port)\s*([0-9]+|Zmin|Zmax)\s*\(\"(.*)\"\)(\s*mode\s*([0-9]+))?.*
! Touchstone port assignment:
! Touchstone port 1 = CST MWS port 1 ("")
! Touchstone port 2 = CST MWS port 2 ("")
! S-Parameters are not renormalized. Unphysical impedance of 0 will be written to the file.
# GHz S MA R 0
6                     0.12001963       135.69641        0.9912874     -117.881592      0.991287407      -117.88159      0.119569322      169.296648
6.0012                0.11831549      135.576376      0.991469994     -118.105284      0.991466369     -118.104946      0.117889987      168.912272
6.0024               0.116631684      135.463104      0.991648904     -118.328463      0.991641815     -118.327797      0.116231584      168.523762
6.0036               0.114968036      135.356652      0.991824189     -118.551131      0.991813801     -118.550145      0.114593843      168.131032
6.0048               0.113324365      135.257079      0.991995907     -118.773291       0.99198238     -118.771995      0.112976503      167.733991
6.006                0.111700498      135.164449      0.992164116     -118.994945      0.992147605     -118.993347      0.111379307      167.332549
6.0072               0.110096259      135.078826      0.992328872     -119.216096      0.992309528     -119.214205      0.109802008      166.926612
6.0084               0.108511477      135.000281      0.992490231     -119.436747        0.9924682     -119.434571      0.108244363      166.516083
6.0096               0.106945981      134.928885      0.992648248       -119.6569      0.992623671     -119.654448      0.106706135      166.100863
6.0108               0.105399605      134.864714      0.992802977     -119.876559      0.992775993     -119.873839      0.105187096      165.680849
6.012                0.103872181      134.807848      0.992954473     -120.095725      0.992925214     -120.092745      0.103687022      165.255937
6.0132               0.102363548      134.758368      0.993102787     -120.314402      0.993071384      -120.31117      0.102205696      164.826019
6.0144               0.100873544      134.716362      0.993247972     -120.532592      0.993214549     -120.529117      0.100742906      164.390984
6.0156              0.0994020122      134.681918       0.99339008     -120.750297      0.993354759     -120.746587     0.0992984465      163.950719
6.0168              0.0979487971      134.655129      0.993529161     -120.967522       0.99349206     -120.963583     0.0978721191      163.505107
6.018               0.0965137465      134.636094      0.993665265     -121.184267      0.993626497     -121.180108     0.0964637297      163.054027
6.0192              0.0950967111      134.624912      0.993798441     -121.400536      0.993758118     -121.396164     0.0950730902      162.597358
6.0204              0.0936975446      134.621688      0.993928739     -121.616331      0.993886966     -121.611754     0.0937000184      162.134973
6.0216              0.0923161038      134.626529      0.994056206     -121.831656      0.994013087     -121.826881     0.0923443376      161.666743
6.0228              0.0909522487       134.63955      0.994180889     -122.046512      0.994136524     -122.041546     0.0910058767      161.192534
6.024               0.0896058425      134.660864      0.994302836     -122.260902       0.99425732     -122.255753       0.08968447       160.71221
6.0252              0.0882767519      134.690593      0.994422091      -122.47483      0.994375519     -122.469503     0.0883799573      160.225631
6.0264              0.0869648469      134.728861      0.994538701     -122.688296      0.994491162       -122.6828     0.0870921838      159.732655
6.0276              0.0856700011      134.775796      0.994652709     -122.901305      0.994604291     -122.895646         0.085821      159.233135
6.0288              0.0843920915       134.83153      0.994764161     -123.113858      0.994714946     -123.108043     0.0845662617       158.72692
6.03                0.0831309989        134.8962      0.994873099     -123.325958      0.994823169     -123.319994     0.0833278302      158.213856
6.0312              0.0818866077      134.969947      0.994979567     -123.537609      0.994928999     -123.531501     0.0821055718      157.693785
6.0324              0.0806588061      135.052914      0.995083606     -123.748811      0.995032476     -123.742567     0.0808993581      157.166548
6.0336              0.0794474861      135.145252      0.995185258     -123.959568      0.995133638     -123.953194     0.0797090659      156.631977
6.0348              0.0782525437      135.247113      0.995284564     -124.169883      0.995232524     -124.163385     0.0785345772      156.089906
6.036               0.0770738786      135.358654      0.995381564     -124.379757      0.995329171     -124.373141     0.0773757793       155.54016
6.0372              0.0759113948      135.480036      0.995476299     -124.589194      0.995423616     -124.582466     0.0762325642      154.982566
6.0384              0.0747650002      135.611426      0.995568807     -124.798195      0.995515897     -124.791361     0.0751048295      154.416942
6.0396              0.0736346068      135.752991      0.995659127     -125.006764      0.995606049      -124.99983     0.0739924777      153.843105
6.0408              0.0725201309      135.904906      0.995747297     -125.214903      0.995694109     -125.207874     0.0728954163      153.260869
6.042               0.0714214928      136.067348      0.995833355     -125.422614       0.99578011     -125.415496     0.0718135581      152.670044
6.0432              0.0703386174      136.240496      0.995917338       -125.6299      0.995864089     -125.622699     0.0707468207      152.070436
6.0444              0.0692714335      136.424536      0.995999281     -125.836763      0.995946079     -125.829484     0.0696951271      151.461847
6.0456              0.0682198746      136.619654      0.996079222     -126.043206      0.996026114     -126.035853     0.0686584051      150.844077
6.0468              0.0671838783      136.826042      0.996157195     -126.249231      0.996104227      -126.24181     0.0676365875      150.216925
6.048                0.066163387      137.043893      0.996233236      -126.45484      0.996180452     -126.447357     0.0666296125      149.580182
6.0492              0.0651583473      137.273404      0.996307378     -126.660036      0.996254819     -126.652496     0.0656374229      148.933641
6.0504              0.0641687102      137.514774      0.996379655     -126.864822      0.996327362     -126.857228     0.0646599668      148.277092
6.0516              0.0631944313      137.768204      0.996450101     -127.069199      0.996398111     -127.061557     0.0636971971       147.61032
6.0528               0.062235471      138.033896      0.996518748      -127.27317      0.996467098     -127.265485     0.0627490718       146.93311
6.054               0.0612917937      138.312055      0.996585629     -127.476737      0.996534353     -127.469014     0.0618155539      146.245247
6.0552              0.0603633687      138.602885      0.996650776     -127.679904      0.996599906     -127.672146     0.0608966112      145.546513
6.0564              0.0594501698      138.906592       0.99671422     -127.882671      0.996663787     -127.874883     0.0599922166      144.836689
6.0576              0.0585521751      139.223382      0.996775991     -128.085042      0.996726025     -128.077229     0.0591023475      144.115558
6.0588              0.0576693675      139.553458      0.996836121     -128.287018      0.996786649     -128.279184     0.0582269866        143.3829
6.06                 0.056801734      139.897023      0.996894639     -128.488602      0.996845687     -128.480751     0.0573661211      142.638499
6.0612              0.0559492662      140.254278      0.996951575     -128.689797      0.996903167     -128.681933     0.0565197429       141.88214
6.0624                0.05511196      140.625422      0.997006957     -128.890604      0.996959117     -128.882731     0.0556878487      141.113608
6.0636              0.0542898155      141.010648      0.997060815     -129.091026      0.997013564     -129.083147     0.0548704397      140.332693
6.0648              0.0534828372      141.410145      0.997113176     -129.291065      0.997066535     -129.283185     0.0540675216      139.539189
6.066               0.0526910334      141.824096      0.997164069     -129.490723      0.997118055     -129.482846     0.0532791044      138.732893
6.0672              0.0519144164       142.25268       0.99721352     -129.690003      0.997168152     -129.682131     0.0525052024      137.913609
6.0684              0.0511530024      142.696063      0.997261556     -129.888907       0.99721685     -129.881044     0.0517458342      137.081147
6.0696              0.0504068112      143.154407      0.997308204     -130.087436      0.997264175     -130.079587     0.0510010221      136.235325
6.0708              0.0496758659      143.627859      0.997353491     -130.285594      0.997310152      -130.27776     0.0502707924       135.37597
6.072                0.048960193      144.116557       0.99739744     -130.483382      0.997354805     -130.475568     0.0495551748      134.502917
6.0732              0.0482598219      144.620625      0.997440079     -130.680802      0.997398158     -130.673011     0.0488542026      133.616016
6.0744              0.0475747848      145.140172      0.997481431     -130.877857      0.997440236     -130.870092     0.0481679121      132.715127
6.0756              0.0469051163      145.675291      0.997521522     -131.074549      0.997481061     -131.066812     0.0474963427      131.800126
6.0768               0.046250853      146.226057      0.997560375     -131.270879      0.997520656     -131.263174     0.0468395361      130.870903
6.078               0.0456120334      146.792524      0.997598013     -131.466851      0.997559045     -131.459181     0.0461975367      129.927367
6.0792              0.0449886974      147.374727      0.997634461     -131.662466       0.99759625     -131.654833     0.0455703903      128.969444
6.0804              0.0443808858      147.972676      0.997669741     -131.857725      0.997632292     -131.850133     0.0449581449      127.997082
6.0816              0.0437886399      148.586355      0.997703877     -132.052633      0.997667194     -132.045083     0.0443608492       127.01025
6.0828               0.043212001      149.215725      0.997736889     -132.247189      0.997700976     -132.239685     0.0437785528      126.008944
6.084               0.0426510102      149.860715        0.9977688     -132.441397      0.997733661      -132.43394     0.0432113056      124.993181
6.0852              0.0421057072      150.521226      0.997799632     -132.635258      0.997765268     -132.627852     0.0426591573      123.963009
6.0864              0.0415761303      151.197124      0.997829406     -132.828775      0.997795818     -132.821421     0.0421221568      122.918504
6.0876              0.0410623158      151.888246      0.997858142     -133.021949      0.997825332     -133.014651     0.0416003517      121.859772
6.0888              0.0405642969      152.594389      0.997885862     -133.214783      0.997853828     -133.207541     0.0410937878      120.786953
6.09                0.0400821034      153.315317      0.997912585     -133.407278      0.997881327     -133.400096     0.0406025083       119.70022
6.0912               0.039615761      154.050754      0.997938331     -133.599436      0.997907848     -133.592316     0.0401265535       118.59978
6.0924              0.0391652907      154.800387      0.997963121      -133.79126      0.997933409     -133.784203     0.0396659596       117.48588
6.0936              0.0387307079       155.56386      0.997986972     -133.982751       0.99795803      -133.97576     0.0392207586      116.358801
6.0948              0.0383120215       156.34078      0.998009905     -134.173912      0.997981729     -134.166988     0.0387909773      115.218866
6.096               0.0379092339       157.13071      0.998031937     -134.364743      0.998004523     -134.357889     0.0383766367      114.066435
6.0972              0.0375223395      157.933173      0.998053087     -134.555248      0.998026431     -134.548464     0.0379777512       112.90191
6.0984              0.0371513245       158.74765      0.998073373     -134.745428      0.998047469     -134.738717     0.0375943281      111.725732
6.0996              0.0367961659      159.573584      0.998092813     -134.935285      0.998067656     -134.928648     0.0372263665      110.538384
6.1008              0.0364568314      160.410374      0.998111425     -135.124821      0.998087008     -135.118259     0.0368738574      109.340386
6.102               0.0361332778      161.257382      0.998129225     -135.314037      0.998105543     -135.307553      0.036536782      108.132302
6.1032              0.0358254514      162.113933       0.99814623     -135.502936      0.998123275     -135.496531     0.0362151119       106.91473
6.1044               0.035533287      162.979314      0.998162457     -135.691519      0.998140222     -135.685194     0.0359088081      105.688309
6.1056              0.0352567073      163.852782      0.998177923     -135.879789        0.9981564     -135.873545     0.0356178207      104.453712
6.1068              0.0349956227      164.733559      0.998192642     -136.067746      0.998171823     -136.061586     0.0353420881      103.211647
6.108                0.034749931      165.620841      0.998206632     -136.255393      0.998186509     -136.249317     0.0350815367      101.962853
6.1092              0.0345195167      166.513798      0.998219908     -136.442732      0.998200471     -136.436741     0.0348360806      100.708097
6.1104              0.0343042514      167.411577      0.998232485     -136.629765      0.998213725      -136.62386     0.0346056209      99.4481747
6.1116              0.0341039931      168.313309      0.998244378     -136.816492      0.998226285     -136.810675     0.0343900462      98.1839035
6.1128              0.0339185866      169.218108      0.998255601     -137.002917      0.998238167     -136.997188     0.0341892314      96.9161207
6.114               0.0337478631       170.12508       0.99826617      -137.18904      0.998249384     -137.183401     0.0340030386      95.6456796
6.1152              0.0335916409      171.033322      0.998276099     -137.374864       0.99825995     -137.369315     0.0338313164      94.3734462
6.1164               0.033449725       171.94193      0.998285401      -137.56039      0.998269879     -137.554933     0.0336739003      93.1002945
6.1176               0.033321908      172.850003      0.998294091      -137.74562      0.998279185     -137.740255     0.0335306129      91.8271031
6.1188                0.03320797      173.756645      0.998302182     -137.930555       0.99828788     -137.925283     0.0334012637      90.5547507
6.12                0.0331076794       174.66097      0.998309688     -138.115197      0.998295979     -138.110019     0.0332856503      89.2841122
6.1212              0.0330207933      175.562108      0.998316621     -138.299549      0.998303495     -138.294465     0.0331835578      88.0160547
6.1224              0.0329470582      176.459206      0.998322994     -138.483611      0.998310439     -138.478622     0.0330947599      86.7514332
6.1236              0.0328862106      177.351433      0.998328821     -138.667386      0.998316824     -138.662492     0.0330190196      85.4910875
6.1248              0.0328379777      178.237983      0.998334114     -138.850874      0.998322663     -138.846077     0.0329560892      84.2358377
6.126               0.0328020782      179.118079      0.998338884     -139.034078      0.998327968     -139.029378     0.0329057115      82.9864814
6.1272              0.0327782235      179.990976      0.998343145     -139.216999      0.998332751     -139.212396     0.0328676203      81.7437902
6.1284              0.0327661178      -179.14404      0.998346907     -139.399639      0.998337024     -139.395134     0.0328415413      80.5085068
6.1296              0.0327654595     -178.287645      0.998350183     -139.581999      0.998340797     -139.577592     0.0328271928      79.2813429
6.1308              0.0327759422     -177.440477      0.998352984     -139.764082      0.998344083     -139.759773     0.0328242865      78.0629761
6.132               0.0327972551     -176.603137      0.998355322     -139.945888      0.998346892     -139.941678     0.0328325285      76.8540485
6.1332              0.0328290841     -175.776185      0.998357206     -140.127419      0.998349236     -140.123308     0.0328516201       75.655165
6.1344              0.0328711129     -174.960137      0.998358649     -140.308676      0.998351126     -140.304665     0.0328812586       74.466892
6.1356              0.0329230234     -174.155473       0.99835966     -140.489662      0.998352571      -140.48575     0.0329211381      73.2897564
6.1368              0.0329844969     -173.362627      0.998360251     -140.670378      0.998353583     -140.666566     0.0329709506       72.124245
6.138               0.0330552149     -172.581993      0.998360432     -140.850825      0.998354171     -140.847112     0.0330303865      70.9708042
6.1392              0.0331348594     -171.813926      0.998360212     -141.031005      0.998354347     -141.027392     0.0330991357        69.82984
6.1404              0.0332231142     -171.058737      0.998359602     -141.210919      0.998354119     -141.207407      0.033176888      68.7017183
6.1416              0.0333196652       -170.3167      0.998358611     -141.390569      0.998353497     -141.387157     0.0332633342      67.5867652
6.1428              0.0334242012     -169.588051       0.99835725     -141.569956      0.998352492     -141.566644     0.0333581667      66.4852682
6.144               0.0335364143     -168.872988      0.998355527     -141.749083      0.998351113      -141.74587     0.0334610797      65.3974766
6.1452              0.0336560008     -168.171674      0.998353452     -141.927949      0.998349368     -141.924836     0.0335717707      64.3236029
6.1464              0.0337826613     -167.484238      0.998351034     -142.106557      0.998347267     -142.103544     0.0336899401      63.2638242
6.1476              0.0339161014     -166.810775      0.998348281     -142.284908       0.99834482     -142.281995     0.0338152923      62.2182833
6.1488              0.0340560318     -166.151351      0.998345204     -142.463004      0.998342034     -142.460191     0.0339475363      61.1870906
6.15                 0.034202169     -165.506003       0.99834181     -142.640845      0.998338918     -142.638132     0.0340863853      60.1703252
6.1512              0.0343542355     -164.874741      0.998338107     -142.818434      0.998335482      -142.81582      0.034231558      59.1680372
6.1524              0.0345119598     -164.257548      0.998334105     -142.995772      0.998331733     -142.993257     0.0343827785      58.1802487
6.1536              0.0346750769     -163.654384      0.998329811      -143.17286      0.998327679     -143.170444     0.0345397765      57.2069561
6.1548              0.0348433284     -163.065189      0.998325233     -143.349699       0.99832333     -143.347382     0.0347022878      56.2481315
6.156               0.0350164627     -162.489879      0.998320379     -143.526292      0.998318692     -143.524073     0.0348700544      55.3037245
6.1572              0.0351942348     -161.928356      0.998315257     -143.702639      0.998313773     -143.700518     0.0350428244      54.3736641
6.1584              0.0353764069     -161.380501      0.998309875     -143.878741      0.998308582     -143.876718     0.0352203527      53.4578598
6.1596               0.035562748     -160.846184       0.99830424     -144.054601      0.998303125     -144.052675     0.0354024006      52.5562041
6.1608              0.0357530339     -160.325257      0.998298359     -144.230218      0.998297411     -144.228389     0.0355887362       51.668573
6.162               0.0359470475     -159.817563       0.99829224     -144.405596      0.998291446     -144.403863      0.035779134      50.7948286
6.1632              0.0361445787     -159.322932      0.998285889     -144.580734      0.998285237     -144.579098     0.0359733755      49.9348196
6.1644              0.0363454241     -158.841185      0.998279314     -144.755635      0.998278793     -144.754094     0.0361712488      49.0883835
6.1656              0.0365493872     -158.372135      0.998272521     -144.930299      0.998272118     -144.928853     0.0363725486      48.2553471
6.1668              0.0367562782     -157.915588      0.998265517     -145.104728      0.998265222     -145.103377     0.0365770762      47.4355286
6.168               0.0369659137     -157.471343      0.998258309     -145.278923      0.998258109     -145.277666     0.0367846397      46.6287379
6.1692               0.037178117     -157.039194      0.998250903     -145.452885      0.998250786     -145.451722     0.0369950534      45.8347784
6.1704              0.0373927177     -156.618931      0.998243304     -145.626616      0.998243261     -145.625547     0.0372081379      45.0534477
6.1716              0.0376095517      -156.21034      0.998235521     -145.800118      0.998235539      -145.79914     0.0374237204      44.2845385
6.1728              0.0378284609     -155.813205      0.998227558      -145.97339      0.998227627     -145.972505      0.037641634      43.5278398
6.174               0.0380492932     -155.427309      0.998219421     -146.146434       0.99821953     -146.145641     0.0378617179      42.7831373
6.1752              0.0382719022     -155.052432      0.998211117     -146.319252      0.998211254      -146.31855     0.0380838171      42.0502144
6.1764              0.0384961472     -154.688354      0.998202651     -146.491845      0.998202807     -146.491233     0.0383077824       41.328853
6.1776              0.0387218931     -154.334857      0.998194029     -146.664214      0.998194192     -146.663691     0.0385334703      40.6188339
6.1788              0.0389490099      -153.99172      0.998185256      -146.83636      0.998185417     -146.835926     0.0387607427      39.9199374
6.18                0.0391773731     -153.658725      0.998176337     -147.008285      0.998176485     -147.007939     0.0389894667       39.231944
6.1812              0.0394068628     -153.335655      0.998167279     -147.179989      0.998167404     -147.179731     0.0392195148       38.554635
6.1824              0.0396373643     -153.022295      0.998158086     -147.351474      0.998158178     -147.351302     0.0394507642      37.8877922
6.1836              0.0398687673     -152.718431      0.998148763     -147.522741      0.998148813     -147.522655     0.0396830973      37.2311992
6.1848              0.0401009664     -152.423853      0.998139316     -147.693791      0.998139313     -147.693791     0.0399164008      36.5846413
6.186               0.0403338603     -152.138352      0.998129748     -147.864625      0.998129685     -147.864709     0.0401505665      35.9479058
6.1872               0.040567352     -151.861723      0.998120066     -148.035244      0.998119932     -148.035413     0.0403854901      35.3207822
6.1884              0.0408013485     -151.593762      0.998110274      -148.20565      0.998110059     -148.205902     0.0406210718      34.7030627
6.1896              0.0410357611      -151.33427      0.998100376     -148.375843      0.998100072     -148.376177     0.0408572159      34.0945423
6.1908              0.0412705045     -151.083052      0.998090377     -148.545825      0.998089975     -148.546241     0.0410938308      33.4950189
6.192               0.0415054971     -150.839913      0.998080281     -148.715597      0.998079773     -148.716094     0.0413308284      32.9042935
6.1932              0.0417406612     -150.604664      0.998070093      -148.88516      0.998069471     -148.885737     0.0415681246      32.3221703
6.1944               0.041975922      -150.37712      0.998059818     -149.054515      0.998059071     -149.055171     0.0418056388       31.748457
6.1956              0.0422112082     -150.157098      0.998049458     -149.223662       0.99804858     -149.224397     0.0420432937      31.1829645
6.1968              0.0424464518      -149.94442      0.998039019     -149.392604      0.998038002     -149.393417     0.0422810156      30.6255073
6.198               0.0426815875      -149.73891      0.998028504     -149.561342      0.998027339     -149.562231     0.0425187337      30.0759036
6.1992              0.0429165531     -149.540397      0.998017917     -149.729875      0.998016598     -149.730841     0.0427563804       29.533975
6.2004              0.0431512892     -149.348714      0.998007263     -149.898206      0.998005781     -149.899247      0.042993891      28.9995469
6.2016              0.0433857389     -149.163697      0.997996545     -150.066335      0.997994892      -150.06745     0.0432312038      28.4724481
6.2028              0.0436198481     -148.985186      0.997985766     -150.234263      0.997983937     -150.235452     0.0434682597      27.9525114
6.204               0.0438535651     -148.813023       0.99797493     -150.401992      0.997972917     -150.403254     0.0437050021      27.4395729
6.2052              0.0440868404     -148.647057      0.997964041     -150.569523      0.997961837     -150.570856     0.0439413772      26.9334724
6.2064              0.0443196271     -148.487137      0.997953103     -150.736855      0.997950701     -150.738259     0.0441773334      26.4340536
6.2076              0.0445518802     -148.333119      0.997942118     -150.903992      0.997939512     -150.905466     0.0444128216      25.9411633
6.2088               0.044783557     -148.184859      0.997931091     -151.070932      0.997928274     -151.072475     0.0446477949      25.4546522
6.21                0.0450146167     -148.042219      0.997920023     -151.237678       0.99791699      -151.23929     0.0448822084      24.9743744
6.2112              0.0452450203     -147.905064      0.997908919     -151.404231      0.997905663      -151.40591     0.0451160194      24.5001873
6.2124              0.0454747311     -147.773261      0.997897782     -151.570591      0.997894297     -151.572336     0.0453491873      24.0319519
6.2136              0.0457037137     -147.646682      0.997886614     -151.736759      0.997882895      -151.73857     0.0455816732      23.5695326
6.2148              0.0459319347     -147.525201       0.99787542     -151.902737       0.99787146     -151.904612       0.04581344      23.1127968
6.216               0.0461593622     -147.408695        0.9978642     -152.068524      0.997859996     -152.070464     0.0460444526      22.6616154
6.2172              0.0463859659     -147.297047      0.997852959     -152.234124      0.997848504     -152.236126     0.0462746774      22.2158624
6.2184               0.046611717     -147.190138        0.9978417     -152.399535      0.997836989     -152.401599     0.0465040825       21.775415
6.2196              0.0468365882     -147.087857      0.997830424     -152.564759      0.997825453     -152.566885     0.0467326374      21.3401533
6.2208              0.0470605535     -146.990093      0.997819136     -152.729797      0.997813899     -152.731983     0.0469603134      20.9099606
6.222               0.0472835883     -146.896737      0.997807836     -152.894651       0.99780233     -152.896896     0.0471870828      20.4847229
6.2232              0.0475056692     -146.807687      0.997796529      -153.05932      0.997790748     -153.061623     0.0474129197      20.0643293
6.2244              0.0477267741     -146.722838      0.997785215     -153.223806      0.997779157     -153.226167     0.0476377992      19.6486714
6.2256               0.047946882     -146.642093      0.997773899     -153.388109      0.997767558     -153.390527     0.0478616979       19.237644
6.2268               0.048165973     -146.565355      0.997762582     -153.552232      0.997755954     -153.554705     0.0480845934      18.8311442
6.228               0.0483840284     -146.492528      0.997751266     -153.716173      0.997744349     -153.718701     0.0483064647      18.4290718
6.2292              0.0486010305     -146.423522      0.997739955     -153.879935      0.997732743     -153.882517     0.0485272916      18.0313292
6.2304              0.0488169624     -146.358247      0.997728649     -154.043518       0.99772114     -154.046153     0.0487470552      17.6378212
6.2316              0.0490318083     -146.296615      0.997717352     -154.206923      0.997709543      -154.20961     0.0489657376      17.2484553
6.2328              0.0492455534     -146.238543      0.997706065     -154.370151      0.997697952     -154.372889     0.0491833219       16.863141
6.234               0.0494581835     -146.183947      0.997694791     -154.533203      0.997686371     -154.535991     0.0493997921      16.4817904
6.2352              0.0496696855     -146.132747      0.997683531      -154.69608      0.997674802     -154.698917      0.049615133      16.1043176