! TOUCHSTONE file generated by CST MICROWAVE STUDIO
! Date and time: Sun May 18 12:28:06 2025
! Project name: X波段窗片重构-标准输入.cst
! Parameters = {L=6; PIN=3100; a=20; b=10; blendraduis=2.85; d=5; s=4; ta=16.03; tb=10.61; trh=1.69; wr=11.49; wt=0.91}
! Header version: 2018
! Port assignment regex: !\s*Touchstone port\s*([0-9]+)\s*=\s*(CST MWS port|CST DS port)\s*([0-9]+|Zmin|Zmax)\s*\(\"(.*)\"\)(\s*mode\s*([0-9]+))?.*
! Touchstone port assignment:
! Touchstone port 1 = CST MWS port 1 ("")
! Touchstone port 2 = CST MWS port 2 ("")
! S-Parameters are not renormalized. Unphysical impedance of 0 will be written to the file.
# GHz S MA R 0
5.5                 0.0787063848     -179.493102      0.455454513    0.0330512846                0               0                0               0
5.5014              0.0784905416     -179.494204      0.455774655    0.0306334598                0               0                0               0
5.5028              0.0782775945      -179.49537      0.456098675    0.0283688806                0               0                0               0
5.5042              0.0780675024     -179.496602       0.45642659    0.0262538579                0               0                0               0
5.5056              0.0778602249       -179.4979      0.456758411    0.0242846961                0               0                0               0
5.507               0.0776557229     -179.499267      0.457094154    0.0224576942                0               0                0               0
5.5084              0.0774539578     -179.500704      0.457433831    0.0207691465                0               0                0               0
5.5098              0.0772548923     -179.502211      0.457777455    0.0192153445                0               0                0               0
5.5112              0.0770584899     -179.503788      0.458125039    0.0177925772                0               0                0               0
5.5126              0.0768647147     -179.505438      0.458476596    0.0164971326                0               0                0               0
5.514               0.0766735321     -179.507161      0.458832137     0.015325299                0               0                0               0
5.5154              0.0764849079     -179.508956      0.459191675    0.0142733661                0               0                0               0
5.5168              0.0762988092     -179.510824      0.459555221    0.0133376258                0               0                0               0
5.5182              0.0761152034     -179.512765      0.459922786    0.0125143742                0               0                0               0
5.5196              0.0759340591      -179.51478      0.460294381    0.0117999119                0               0                0               0
5.521               0.0757553455     -179.516868      0.460670016    0.0111905461                0               0                0               0
5.5224              0.0755790325     -179.519029      0.461049702    0.0106825911                0               0                0               0
5.5238              0.0754050908     -179.521263      0.461433449    0.0102723701                0               0                0               0
5.5252               0.075233492      -179.52357      0.461821267   0.00995621638                0               0                0               0
5.5266              0.0750642081     -179.525948      0.462213163   0.00973047429                0               0                0               0
5.528               0.0748972121     -179.528398      0.462609148   0.00959150086                0               0                0               0
5.5294              0.0747324775     -179.530918       0.46300923   0.00953566703                0               0                0               0
5.5308              0.0745699786     -179.533508      0.463413418   0.00955935894                0               0                0               0
5.5322              0.0744096903     -179.536167      0.463821718   0.00965897927                0               0                0               0
5.5336              0.0742515882     -179.538895      0.464234139   0.00983094863                0               0                0               0
5.535               0.0740956485     -179.541689      0.464650689    0.0100717069                0               0                0               0
5.5364               0.073941848     -179.544549      0.465071373    0.0103777145                0               0                0               0
5.5378              0.0737901642     -179.547473      0.465496198    0.0107454539                0               0                0               0
5.5392              0.0736405753     -179.550461      0.465925172    0.0111714309                0               0                0               0
5.5406              0.0734930599     -179.553511      0.466358299    0.0116521762                0               0                0               0
5.542               0.0733475973     -179.556621      0.466795585    0.0121842465                0               0                0               0
5.5434              0.0732041674      -179.55979      0.467237036    0.0127642261                0               0                0               0
5.5448              0.0730627508     -179.563016      0.467682656    0.0133887282                0               0                0               0
5.5462              0.0729233283     -179.566298       0.46813245    0.0140543964                0               0                0               0
5.5476              0.0727858817     -179.569634      0.468586423    0.0147579062                0               0                0               0
5.549                0.072650393     -179.573022      0.469044578    0.0154959662                0               0                0               0
5.5504              0.0725168449      -179.57646      0.469506918    0.0162653195                0               0                0               0
5.5518              0.0723852208     -179.579946      0.469973448    0.0170627455                0               0                0               0
5.5532              0.0722555043     -179.583479       0.47044417    0.0178850608                0               0                0               0
5.5546              0.0721276798     -179.587056      0.470919087    0.0187291211                0               0                0               0
5.556               0.0720017321     -179.590675      0.471398201    0.0195918222                0               0                0               0
5.5574              0.0718776464     -179.594334      0.471881514    0.0204701018                0               0                0               0
5.5588              0.0717554087     -179.598032      0.472369029    0.0213609407                0               0                0               0
5.5602              0.0716350053     -179.601765      0.472860745    0.0222613641                0               0                0               0
5.5616               0.071516423     -179.605531      0.473356665    0.0231684435                0               0                0               0
5.563               0.0713996491     -179.609329       0.47385679    0.0240792974                0               0                0               0
5.5644              0.0712846714     -179.613155       0.47436112    0.0249910934                0               0                0               0
5.5658              0.0711714783     -179.617008      0.474869654    0.0259010491                0               0                0               0
5.5672              0.0710600585     -179.620884      0.475382395    0.0268064337                0               0                0               0
5.5686              0.0709504013     -179.624782       0.47589934    0.0277045694                0               0                0               0
5.57                0.0708424962       -179.6287       0.47642049    0.0285928326                0               0                0               0
5.5714              0.0707363336     -179.632633      0.476945844    0.0294686556                0               0                0               0
5.5728              0.0706319041     -179.636581        0.4774754    0.0303295275                0               0                0               0
5.5742              0.0705291988      -179.64054      0.478009158    0.0311729958                0               0                0               0
5.5756              0.0704282091     -179.644508      0.478547117    0.0319966677                0               0                0               0
5.577               0.0703289271     -179.648483      0.479089274    0.0327982115                0               0                0               0
5.5784              0.0702313453     -179.652461      0.479635627    0.0335753578                0               0                0               0
5.5798              0.0701354566      -179.65644      0.480186175    0.0343259005                0               0                0               0
5.5812              0.0700412542     -179.660417      0.480740915    0.0350476986                0               0                0               0
5.5826               0.069948732      -179.66439      0.481299844    0.0357386771                0               0                0               0
5.584               0.0698578841     -179.668356      0.481862961    0.0363968283                0               0                0               0
5.5854              0.0697687053     -179.672313      0.482430262    0.0370202128                0               0                0               0
5.5868              0.0696811906     -179.676257      0.483001744    0.0376069612                0               0                0               0
5.5882              0.0695953356     -179.680186      0.483577404    0.0381552747                0               0                0               0
5.5896              0.0695111361     -179.684097       0.48415724    0.0386634265                0               0                0               0
5.591               0.0694285886     -179.687989      0.484741247    0.0391297628                0               0                0               0
5.5924              0.0693476899     -179.691857      0.485329422    0.0395527041                0               0                0               0
5.5938              0.0692684372     -179.695699      0.485921762     0.039930746                0               0                0               0
5.5952              0.0691908282     -179.699514      0.486518263    0.0402624601                0               0                0               0
5.5966               0.069114861     -179.703297      0.487118921    0.0405464955                0               0                0               0
5.598               0.0690405342     -179.707046      0.487723734    0.0407815792                0               0                0               0
5.5994              0.0689678466      -179.71076      0.488332696    0.0409665173                0               0                0               0
5.6008              0.0688967977     -179.714435      0.488945806     0.041100196                0               0                0               0
5.6022              0.0688273873     -179.718068      0.489563057    0.0411815821                0               0                0               0
5.6036              0.0687596156     -179.721658      0.490184449    0.0412097239                0               0                0               0
5.605               0.0686934833     -179.725201      0.490809975    0.0411837524                0               0                0               0
5.6064              0.0686289914     -179.728695      0.491439634    0.0411028812                0               0                0               0
5.6078              0.0685661415     -179.732138      0.492073421     0.040966408                0               0                0               0
5.6092              0.0685049355     -179.735527      0.492711333    0.0407737148                0               0                0               0
5.6106              0.0684453759      -179.73886      0.493353367    0.0405242685                0               0                0               0
5.612               0.0683874654     -179.742134       0.49399952    0.0402176215                0               0                0               0
5.6134              0.0683312073     -179.745348      0.494649789    0.0398534122                0               0                0               0
5.6148              0.0682766053     -179.748498      0.495304171    0.0394313655                0               0                0               0
5.6162              0.0682236634     -179.751583      0.495962664    0.0389512929                0               0                0               0
5.6176              0.0681723864     -179.754601      0.496625265    0.0384130931                0               0                0               0
5.619               0.0681227791     -179.757549      0.497291972    0.0378167523                0               0                0               0
5.6204               0.068074847     -179.760426      0.497962784     0.037162344                0               0                0               0
5.6218              0.0680285961     -179.763229        0.4986377    0.0364500296                0               0                0               0
5.6232              0.0679840327     -179.765956      0.499316717    0.0356800583                0               0                0               0
5.6246              0.0679411635     -179.768606      0.499999835    0.0348527668                0               0                0               0
5.626               0.0678999958     -179.771177      0.500687055    0.0339685798                0               0                0               0
5.6274              0.0678605374     -179.773667      0.501378375    0.0330280094                0               0                0               0
5.6288              0.0678227965     -179.776074      0.502073797     0.032031655                0               0                0               0
5.6302              0.0677867816     -179.778396      0.502773321    0.0309802033                0               0                0               0
5.6316              0.0677525018     -179.780633      0.503476949    0.0298744275                0               0                0               0
5.633               0.0677199669     -179.782783      0.504184683    0.0287151869                0               0                0               0
5.6344              0.0676891868     -179.784844      0.504896525    0.0275034268                0               0                0               0
5.6358              0.0676601721     -179.786815      0.505612479    0.0262401774                0               0                0               0
5.6372              0.0676329339     -179.788696      0.506332547    0.0249265531                0               0                0               0
5.6386              0.0676074836     -179.790484      0.507056735    0.0235637521                0               0                0               0
5.64                0.0675838333     -179.792178      0.507785048    0.0221530552                0               0                0               0
5.6414              0.0675619955     -179.793779      0.508517491    0.0206958246                0               0                0               0
5.6428              0.0675419834     -179.795285       0.50925407    0.0191935034                0               0                0               0
5.6442              0.0675238103     -179.796695      0.509994794    0.0176476136                0               0                0               0
5.6456              0.0675074905     -179.798009       0.51073967    0.0160597556                0               0                0               0
5.647               0.0674930385     -179.799226      0.511488707    0.0144316062                0               0                0               0
5.6484              0.0674804695     -179.800347      0.512241916    0.0127649172                0               0                0               0
5.6498              0.0674697991     -179.801369      0.512999305    0.0110615138                0               0                0               0
5.6512              0.0674610436     -179.802294      0.513760889   0.00932329304                0               0                0               0
5.6526              0.0674542198     -179.803122      0.514526678   0.00755222137                0               0                0               0
5.654               0.0674493451     -179.803852      0.515296687   0.00575033312                0               0                0               0
5.6554              0.0674464373     -179.804484      0.516070931   0.00391972815                0               0                0               0
5.6568              0.0674455151      -179.80502      0.516849425   0.00206256955                0               0                0               0
5.6582              0.0674465974     -179.805459      0.517632187    0.0001810813                0               0                0               0
5.6596               0.067449704     -179.805802      0.518419235  -0.00172245435                0               0                0               0
5.661               0.0674548553     -179.806049      0.519210588  -0.00364569956                0               0                0               0
5.6624              0.0674620721     -179.806202      0.520006266   -0.0055862637                0               0                0               0
5.6638               0.067471376     -179.806261      0.520806293   -0.0075417064                0               0                0               0
5.6652              0.0674827893     -179.806227       0.52161069  -0.00950954065                0               0                0               0
5.6666              0.0674963348     -179.806103      0.522419483   -0.0114872361                0               0                0               0
5.668               0.0675120361     -179.805888      0.523232698   -0.0134722226                0               0                0               0
5.6694              0.0675299174     -179.805585      0.524050362   -0.0154618935                0               0                0               0
5.6708              0.0675500035     -179.805195      0.524872504     -0.01745361                0               0                0               0
5.6722              0.0675723201      -179.80472      0.525699155   -0.0194447043                0               0                0               0
5.6736              0.0675968936     -179.804163      0.526530347   -0.0214324845                0               0                0               0
5.675                0.067623751     -179.803524      0.527366113   -0.0234142384                0               0                0               0
5.6764              0.0676529201     -179.802806      0.528206489   -0.0253872379                0               0                0               0
5.6778              0.0676844296     -179.802012      0.529051511   -0.0273487438                0               0                0               0
5.6792              0.0677183087     -179.801144      0.529901218   -0.0292960108                0               0                0               0
5.6806              0.0677545878     -179.800204      0.530755651   -0.0312262919                0               0                0               0
5.682               0.0677932978     -179.799196      0.531614851   -0.0331368439                0               0                0               0
5.6834              0.0678344706     -179.798123      0.532478863   -0.0350249329                0               0                0               0
5.6848              0.0678781389     -179.796987      0.533347732   -0.0368878393                0               0                0               0
5.6862              0.0679243362     -179.795792      0.534221505   -0.0387228638                0               0                0               0
5.6876              0.0679730972     -179.794541      0.535100233   -0.0405273332                0               0                0               0
5.689               0.0680244572     -179.793238      0.535983967   -0.0422986065                0               0                0               0
5.6904              0.0680784526     -179.791886      0.536872759   -0.0440340809                0               0                0               0
5.6918              0.0681351208     -179.790489      0.537766665   -0.0457311981                0               0                0               0
5.6932              0.0681945002      -179.78905      0.538665743   -0.0473874513                0               0                0               0
5.6946              0.0682566302     -179.787575      0.539570052   -0.0490003914                0               0                0               0
5.696               0.0683215513     -179.786067      0.540479652   -0.0505676341                0               0                0               0
5.6974              0.0683893051     -179.784531      0.541394607   -0.0520868668                0               0                0               0
5.6988              0.0684599343      -179.78297      0.542314983   -0.0535558558                0               0                0               0
5.7002              0.0685334828     -179.781389      0.543240846   -0.0549724537                0               0                0               0
5.7016              0.0686099958     -179.779794      0.544172267   -0.0563346066                0               0                0               0
5.703               0.0686895195     -179.778188      0.545109316   -0.0576403619                0               0                0               0
5.7044              0.0687721016     -179.776576      0.546052067   -0.0588878756                0               0                0               0
5.7058              0.0688577911     -179.774964      0.547000596   -0.0600754206                0               0                0               0
5.7072              0.0689466383     -179.773357       0.54795498   -0.0612013939                0               0                0               0
5.7086              0.0690386949     -179.771759      0.548915298    -0.062264325                0               0                0               0
5.71                0.0691340141     -179.770175      0.549881634   -0.0632628836                0               0                0               0
5.7114              0.0692326508     -179.768612      0.550854069   -0.0641958877                0               0                0               0
5.7128              0.0693346612     -179.767073      0.551832689   -0.0650623116                0               0                0               0
5.7142              0.0694401034     -179.765565      0.552817582   -0.0658612937                0               0                0               0
5.7156              0.0695490369     -179.764092      0.553808838   -0.0665921449                0               0                0               0
5.717               0.0696615234      -179.76266      0.554806547   -0.0672543558                0               0                0               0
5.7184               0.069777626     -179.761275      0.555810802   -0.0678476053                0               0                0               0
5.7198                0.06989741     -179.759941      0.556821698   -0.0683717676                0               0                0               0
5.7212              0.0700209426     -179.758665       0.55783933   -0.0688269201                0               0                0               0
5.7226              0.0701482931      -179.75745      0.558863798   -0.0692133506                0               0                0               0
5.724                0.070279533     -179.756303        0.5598952   -0.0695315645                0               0                0               0
5.7254               0.070414736     -179.755229      0.560933636   -0.0697822915                0               0                0               0
5.7268              0.0705539782     -179.754232      0.561979209   -0.0699664918                0               0                0               0
5.7282              0.0706973382     -179.753318      0.563032023    -0.070085363                0               0                0               0
5.7296              0.0708448971     -179.752492       0.56409218   -0.0701403449                0               0                0               0
5.731               0.0709967388     -179.751758      0.565159787   -0.0701331253                0               0                0               0
5.7324                0.07115295     -179.751121      0.566234949   -0.0700656442                0               0                0               0
5.7338              0.0713136204     -179.750586      0.567317773   -0.0699400982                0               0                0               0
5.7352              0.0714788428     -179.750156      0.568408367   -0.0697589438                0               0                0               0
5.7366              0.0716487131     -179.749836      0.569506838   -0.0695248996                0               0                0               0
5.738               0.0718233309      -179.74963      0.570613293   -0.0692409487                0               0                0               0
5.7394              0.0720027993      -179.74954       0.57172784    -0.068910339                0               0                0               0
5.7408              0.0721872252     -179.749571      0.572850587   -0.0685365834                0               0                0               0
5.7422              0.0723767194     -179.749726      0.573981641   -0.0681234584                0               0                0               0
5.7436               0.072571397     -179.750006      0.575121108   -0.0676750018                0               0                0               0
5.745               0.0727713776     -179.750415      0.576269094   -0.0671955089                0               0                0               0
5.7464              0.0729767853     -179.750955      0.577425704   -0.0666895273                0               0                0               0
5.7478              0.0731877492     -179.751626      0.578591039   -0.0661618509                0               0                0               0
5.7492              0.0734044036     -179.752431      0.579765202   -0.0656175108                0               0                0               0
5.7506              0.0736268884     -179.753369      0.580948292   -0.0650617661                0               0                0               0
5.752               0.0738553492     -179.754442      0.582140407    -0.064500092                0               0                0               0
5.7534              0.0740899376     -179.755649       0.58334164   -0.0639381656                0               0                0               0
5.7548              0.0743308121     -179.756989      0.584552085   -0.0633818507                0               0                0               0
5.7562              0.0745781377     -179.758461       0.58577183   -0.0628371794                0               0                0               0
5.7576              0.0748320868     -179.760064      0.587000961   -0.0623103318                0               0                0               0
5.759               0.0750928398     -179.761795      0.588239558   -0.0618076127                0               0                0               0
5.7604              0.0753605849     -179.763652      0.589487701   -0.0613354267                0               0                0               0
5.7618              0.0756355192     -179.765631      0.590745461   -0.0609002493                0               0                0               0
5.7632              0.0759178492     -179.767728      0.592012907   -0.0605085959                0               0                0               0
5.7646               0.076207791     -179.769938      0.593290102   -0.0601669876                0               0                0               0
5.766               0.0765055711     -179.772257      0.594577104   -0.0598819137                0               0                0               0
5.7674              0.0768114275     -179.774679      0.595873965   -0.0596597912                0               0                0               0
5.7688              0.0771256096     -179.777197       0.59718073   -0.0595069203                0               0                0               0
5.7702              0.0774483797     -179.779804      0.598497438   -0.0594294375                0               0                0               0
5.7716              0.0777800132     -179.782493      0.599824123   -0.0594332644                0               0                0               0
5.773               0.0781208002     -179.785257      0.601160808   -0.0595240525                0               0                0               0
5.7744              0.0784710458     -179.788086      0.602507513   -0.0597071255                0               0                0               0
5.7758              0.0788310714     -179.790971      0.603864247   -0.0599874171                0               0                0               0