! TOUCHSTONE file generated by CST MICROWAVE STUDIO
! Date and time: Sun May 18 12:28:06 2025
! Project name: X波段窗片重构-标准输入.cst
! Parameters = {L=6; PIN=3100; a=20; b=10; blendraduis=2.85; d=5; s=4; ta=16.03; tb=10.61; trh=1.47; wr=11.49; wt=0.91}
! Header version: 2018
! Port assignment regex: !\s*Touchstone port\s*([0-9]+)\s*=\s*(CST MWS port|CST DS port)\s*([0-9]+|Zmin|Zmax)\s*\(\"(.*)\"\)(\s*mode\s*([0-9]+))?.*
! Touchstone port assignment:
! Touchstone port 1 = CST MWS port 1 ("")
! Touchstone port 2 = CST MWS port 2 ("")
! S-Parameters are not renormalized. Unphysical impedance of 0 will be written to the file.
# GHz S MA R 0
5.5                 0.0514713527     -179.136846      0.501072385    0.0253411522                0               0                0               0
5.5014              0.0511837661     -179.134332      0.501488402    0.0168058444                0               0                0               0
5.5028              0.0508961112     -179.132388      0.501908099   0.00852871835                0               0                0               0
5.5042               0.050608398     -179.130998      0.502331515  0.000507468629                0               0                0               0
5.5056               0.050320636     -179.130148       0.50275869  -0.00726025532                0               0                0               0
5.507               0.0500328347     -179.129822      0.503189664   -0.0147768491                0               0                0               0
5.5084               0.049745003     -179.130006      0.503624476   -0.0220447533                0               0                0               0
5.5098              0.0494571494     -179.130684      0.504063166   -0.0290664533                0               0                0               0
5.5112              0.0491692823     -179.131843      0.504505775   -0.0358444788                0               0                0               0
5.5126              0.0488814096     -179.133465      0.504952342   -0.0423814042                0               0                0               0
5.514               0.0485935389     -179.135537      0.505402908   -0.0486798477                0               0                0               0
5.5154              0.0483056777     -179.138043      0.505857512   -0.0547424715                0               0                0               0
5.5168              0.0480178329     -179.140969      0.506316194   -0.0605719813                0               0                0               0
5.5182              0.0477300113     -179.144298      0.506778994    -0.066171126                0               0                0               0
5.5196              0.0474422194     -179.148016      0.507245953   -0.0715426973                0               0                0               0
5.521               0.0471544632     -179.152107       0.50771711   -0.0766895294                0               0                0               0
5.5224              0.0468667488     -179.156557      0.508192506   -0.0816144987                0               0                0               0
5.5238              0.0465790816      -179.16135       0.50867218    -0.086320523                0               0                0               0
5.5252              0.0462914671      -179.16647      0.509156173   -0.0908105614                0               0                0               0
5.5266              0.0460039104     -179.171903      0.509644524   -0.0950876135                0               0                0               0
5.528               0.0457164162     -179.177633      0.510137274   -0.0991547192                0               0                0               0
5.5294              0.0454289891     -179.183645      0.510634461    -0.103014958                0               0                0               0
5.5308              0.0451416335     -179.189923      0.511136127    -0.106671448                0               0                0               0
5.5322              0.0448543534     -179.196453      0.511642311    -0.110127346                0               0                0               0
5.5336              0.0445671527     -179.203218      0.512153053    -0.113385846                0               0                0               0
5.535                0.044280035     -179.210204      0.512668392     -0.11645018                0               0                0               0
5.5364              0.0439930036     -179.217395      0.513188368    -0.119323615                0               0                0               0
5.5378              0.0437060617     -179.224776       0.51371302    -0.122009455                0               0                0               0
5.5392              0.0434192121     -179.232332      0.514242389    -0.124511037                0               0                0               0
5.5406              0.0431324577     -179.240046      0.514776513    -0.126831734                0               0                0               0
5.542               0.0428458008     -179.247905      0.515315431    -0.128974949                0               0                0               0
5.5434              0.0425592436     -179.255891      0.515859183     -0.13094412                0               0                0               0
5.5448              0.0422727884     -179.263991      0.516407808    -0.132742715                0               0                0               0
5.5462              0.0419864367     -179.272189      0.516961345    -0.134374232                0               0                0               0
5.5476              0.0417001904      -179.28047      0.517519832      -0.1358422                0               0                0               0
5.549               0.0414140507     -179.288817      0.518083309    -0.137150173                0               0                0               0
5.5504               0.041128019     -179.297217      0.518651813    -0.138301735                0               0                0               0
5.5518              0.0408420961     -179.305653      0.519225384    -0.139300496                0               0                0               0
5.5532              0.0405562829      -179.31411      0.519804059    -0.140150089                0               0                0               0
5.5546                0.04027058     -179.322573      0.520387877    -0.140854171                0               0                0               0
5.556               0.0399849877     -179.331027      0.520976875    -0.141416424                0               0                0               0
5.5574              0.0396995063     -179.339457      0.521571092    -0.141840548                0               0                0               0
5.5588              0.0394141358     -179.347847      0.522170565    -0.142130265                0               0                0               0
5.5602               0.039128876     -179.356181      0.522775332    -0.142289315                0               0                0               0
5.5616              0.0388437264     -179.364446      0.523385429    -0.142321456                0               0                0               0
5.563               0.0385586864     -179.372625      0.524000895    -0.142230461                0               0                0               0
5.5644              0.0382737553     -179.380703      0.524621765    -0.142020117                0               0                0               0
5.5658              0.0379889321     -179.388666      0.525248078    -0.141694226                0               0                0               0
5.5672              0.0377042156     -179.396497      0.525879868    -0.141256601                0               0                0               0
5.5686              0.0374196043     -179.404183      0.526517174    -0.140711062                0               0                0               0
5.57                0.0371350967     -179.411707       0.52716003    -0.140061442                0               0                0               0
5.5714               0.036850691     -179.419054      0.527808473    -0.139311577                0               0                0               0
5.5728              0.0365663851      -179.42621      0.528462539    -0.138465311                0               0                0               0
5.5742              0.0362821769     -179.433159      0.529122264     -0.13752649                0               0                0               0
5.5756               0.035998064     -179.439885      0.529787682    -0.136498961                0               0                0               0
5.577               0.0357140437     -179.446375      0.530458829    -0.135386572                0               0                0               0
5.5784              0.0354301132     -179.452613      0.531135741    -0.134193171                0               0                0               0
5.5798              0.0351462695     -179.458583      0.531818451      -0.1329226                0               0                0               0
5.5812              0.0348625093     -179.464271      0.532506994    -0.131578696                0               0                0               0
5.5826               0.034578829     -179.469662      0.533201406    -0.130165289                0               0                0               0
5.584               0.0342952251      -179.47474      0.533901719    -0.128686201                0               0                0               0
5.5854              0.0340116936      -179.47949      0.534607968    -0.127145242                0               0                0               0
5.5868              0.0337282303     -179.483897      0.535320187    -0.125546209                0               0                0               0
5.5882              0.0334448308     -179.487947      0.536038409    -0.123892883                0               0                0               0
5.5896              0.0331614905     -179.491623      0.536762668    -0.122189031                0               0                0               0
5.591               0.0328782045     -179.494911      0.537492997    -0.120438398                0               0                0               0
5.5924              0.0325949678     -179.497796      0.538229429    -0.118644709                0               0                0               0
5.5938               0.032311775     -179.500262      0.538971997    -0.116811666                0               0                0               0
5.5952              0.0320286204     -179.502295      0.539720733    -0.114942945                0               0                0               0
5.5966              0.0317454982     -179.503879       0.54047567    -0.113042197                0               0                0               0
5.598               0.0314624022     -179.504998      0.541236841     -0.11111304                0               0                0               0
5.5994               0.031179326     -179.505638      0.542004276    -0.109159063                0               0                0               0
5.6008               0.030896263     -179.505783       0.54277801    -0.107183819                0               0                0               0
5.6022              0.0306132061     -179.505418      0.543558072    -0.105190827                0               0                0               0
5.6036              0.0303301482     -179.504527      0.544344496    -0.103183567                0               0                0               0
5.605               0.0300470816     -179.503095      0.545137313    -0.101165477                0               0                0               0
5.6064              0.0297639985     -179.501106      0.545936554   -0.0991399542                0               0                0               0
5.6078              0.0294808908     -179.498545       0.54674225     -0.09711035                0               0                0               0
5.6092              0.0291977499     -179.495395      0.547554434   -0.0950799683                0               0                0               0
5.6106              0.0289145671     -179.491641      0.548373136   -0.0930520639                0               0                0               0
5.612               0.0286313332     -179.487267      0.549198388   -0.0910298396                0               0                0               0
5.6134              0.0283480387     -179.482256      0.550030221   -0.0890164439                0               0                0               0
5.6148              0.0280646739     -179.476592      0.550868666   -0.0870149694                0               0                0               0
5.6162              0.0277812285      -179.47026      0.551713754   -0.0850284496                0               0                0               0
5.6176               0.027497692     -179.463241      0.552565517   -0.0830598574                0               0                0               0
5.619               0.0272140535      -179.45552      0.553423986   -0.0811121025                0               0                0               0
5.6204              0.0269303017     -179.447079      0.554289192   -0.0791880289                0               0                0               0
5.6218              0.0266464248       -179.4379      0.555161166   -0.0772904133                0               0                0               0
5.6232              0.0263624108     -179.427967      0.556039941   -0.0754219623                0               0                0               0
5.6246              0.0260782471     -179.417262      0.556925547   -0.0735853102                0               0                0               0
5.626               0.0257939209     -179.405765      0.557818017   -0.0717830174                0               0                0               0
5.6274              0.0255094186     -179.393459      0.558717382   -0.0700175672                0               0                0               0
5.6288              0.0252247266     -179.380324      0.559623676   -0.0682913648                0               0                0               0
5.6302              0.0249398305     -179.366341       0.56053693   -0.0666067343                0               0                0               0
5.6316              0.0246547156      -179.35149      0.561457177   -0.0649659167                0               0                0               0
5.633               0.0243693666      -179.33575       0.56238445   -0.0633710683                0               0                0               0
5.6344              0.0240837677     -179.319101      0.563318783   -0.0618242584                0               0                0               0
5.6358              0.0237979029     -179.301521      0.564260209    -0.060327467                0               0                0               0
5.6372              0.0235117552     -179.282988      0.565208763   -0.0588825833                0               0                0               0
5.6386              0.0232253074     -179.263477       0.56616448   -0.0574914035                0               0                0               0
5.64                0.0229385417     -179.242966      0.567127395   -0.0561556292                0               0                0               0
5.6414              0.0226514397      -179.22143      0.568097543   -0.0548768652                0               0                0               0
5.6428              0.0223639823     -179.198842      0.569074962   -0.0536566182                0               0                0               0
5.6442                0.02207615     -179.175175      0.570059687   -0.0524962947                0               0                0               0
5.6456              0.0217879226     -179.150402      0.571051758   -0.0513971997                0               0                0               0
5.647               0.0214992794     -179.124493      0.572051212   -0.0503605347                0               0                0               0
5.6484              0.0212101988     -179.097417      0.573058088    -0.049387397                0               0                0               0
5.6498              0.0209206589     -179.069141      0.574072428   -0.0484787772                0               0                0               0
5.6512              0.0206306368     -179.039631      0.575094272    -0.047635559                0               0                0               0
5.6526               0.020340109     -179.008852      0.576123661    -0.046858517                0               0                0               0
5.654               0.0200490516     -178.976764       0.57716064   -0.0461483162                0               0                0               0
5.6554              0.0197574395     -178.943328      0.578205253   -0.0455055107                0               0                0               0
5.6568              0.0194652472     -178.908499      0.579257544   -0.0449305427                0               0                0               0
5.6582              0.0191724484     -178.872233      0.580317561   -0.0444237417                0               0                0               0
5.6596              0.0188790158     -178.834481      0.581385351   -0.0439853238                0               0                0               0
5.661               0.0185849216     -178.795189      0.582460964   -0.0436153912                0               0                0               0
5.6624              0.0182901371     -178.754303      0.583544451   -0.0433139313                0               0                0               0
5.6638              0.0179946326     -178.711761      0.584635863   -0.0430808169                0               0                0               0
5.6652              0.0176983777       -178.6675      0.585735255   -0.0429158054                0               0                0               0
5.6666              0.0174013413      -178.62145      0.586842682   -0.0428185391                0               0                0               0
5.668                0.017103491     -178.573535      0.587958202   -0.0427885453                0               0                0               0
5.6694              0.0168047938     -178.523674      0.589081874   -0.0428252361                0               0                0               0
5.6708              0.0165052158     -178.471779       0.59021376   -0.0429279091                0               0                0               0
5.6722              0.0162047218     -178.417754      0.591353922    -0.043095748                0               0                0               0
5.6736              0.0159032762     -178.361494      0.592502426   -0.0433278229                0               0                0               0
5.675               0.0156008418     -178.302885       0.59365934   -0.0436230917                0               0                0               0
5.6764              0.0152973808     -178.241804      0.594824733   -0.0439804009                0               0                0               0
5.6778              0.0149928543     -178.178112      0.595998679   -0.0443984866                0               0                0               0
5.6792              0.0146872223     -178.111661      0.597181253   -0.0448759768                0               0                0               0
5.6806              0.0143804436     -178.042285      0.598372532    -0.045411392                0               0                0               0
5.682               0.0140724763     -177.969802      0.599572597    -0.046003148                0               0                0               0
5.6834               0.013763277     -177.894011      0.600781532   -0.0466495575                0               0                0               0
5.6848              0.0134528014     -177.814689      0.601999422   -0.0473488326                0               0                0               0
5.6862              0.0131410041     -177.731587      0.603226359   -0.0480990874                0               0                0               0
5.6876              0.0128278384      -177.64443      0.604462434   -0.0488983408                0               0                0               0
5.689               0.0125132567     -177.552909      0.605707745   -0.0497445196                0               0                0               0
5.6904                0.01219721     -177.456677      0.606962392   -0.0506354617                0               0                0               0
5.6918              0.0118796483     -177.355346      0.608226477   -0.0515689199                0               0                0               0
5.6932              0.0115605204     -177.248477      0.609500109   -0.0525425657                0               0                0               0
5.6946              0.0112397741     -177.135575      0.610783399   -0.0535539934                0               0                0               0
5.696               0.0109173559     -177.016075      0.612076464   -0.0546007245                0               0                0               0
5.6974              0.0105932114     -176.889337      0.613379422   -0.0556802127                0               0                0               0
5.6988              0.0102672849     -176.754624      0.614692398   -0.0567898486                0               0                0               0
5.7002             0.00993952016     -176.611093      0.616015522   -0.0579269653                0               0                0               0
5.7016             0.00960985971     -176.457767      0.617348927   -0.0590888436                0               0                0               0
5.703              0.00927824547     -176.293514      0.618692752   -0.0602727187                0               0                0               0
5.7044             0.00894461873     -176.117015       0.62004714   -0.0614757859                0               0                0               0
5.7058             0.00860892037     -175.926716       0.62141224   -0.0626952073                0               0                0               0
5.7072             0.00827109116     -175.720789      0.622788208   -0.0639281188                0               0                0               0
5.7086             0.00793107209     -175.497053      0.624175203   -0.0651716375                0               0                0               0
5.71               0.00758880486     -175.252899      0.625573391   -0.0664228691                0               0                0               0
5.7114              0.0072442325     -174.985174      0.626982944   -0.0676789157                0               0                0               0
5.7128             0.00689730028     -174.690035      0.628404039   -0.0689368844                0               0                0               0
5.7142             0.00654795683     -174.362748      0.629836863   -0.0701938956                0               0                0               0
5.7156             0.00619615582     -173.997422      0.631281604   -0.0714470919                0               0                0               0
5.717              0.00584185818     -173.586631      0.632738462   -0.0726936474                0               0                0               0
5.7184             0.00548503543     -173.120888       0.63420764   -0.0739307773                0               0                0               0
5.7198             0.00512567435     -172.587876      0.635689351   -0.0751557475                0               0                0               0
5.7212             0.00476378402     -171.971329      0.637183815   -0.0763658849                0               0                0               0
5.7226              0.0043994066     -171.249318      0.638691257   -0.0775585875                0               0                0               0
5.724              0.00403263415     -170.391588      0.640211912   -0.0787313356                0               0                0               0
5.7254             0.00366363618     -169.355249      0.641746024   -0.0798817021                0               0                0               0
5.7268              0.0032927064     -168.077525      0.643293843   -0.0810073639                0               0                0               0
5.7282             0.00292034606     -166.462988      0.644855629   -0.0821061133                0               0                0               0
5.7296             0.00254742166     -164.359814       0.64643165   -0.0831758693                0               0                0               0
5.731              0.00217548509     -161.512804      0.648022183   -0.0842146891                0               0                0               0
5.7324             0.00180748144     -157.463607      0.649627514   -0.0852207803                0               0                0               0
5.7338             0.00144948063     -151.323698       0.65124794   -0.0861925122                0               0                0               0
5.7352             0.00111538769     -141.245062      0.652883765   -0.0871284278                0               0                0               0
5.7366            0.000840299102     -123.491534      0.654535305   -0.0880272556                0               0                0               0
5.738              0.00070524508     -94.3255342      0.656202886   -0.0888879213                0               0                0               0
5.7394            0.000792949396     -62.8525236      0.657886843   -0.0897095592                0               0                0               0
5.7408             0.00105438893     -42.1714565      0.659587523   -0.0904915238                0               0                0               0
5.7422             0.00139939428      -30.491202      0.661305285   -0.0912334005                0               0                0               0
5.7436             0.00178357199     -23.5348487      0.663040497   -0.0919350169                0               0                0               0
5.745              0.00218941106     -19.0406638       0.66479354   -0.0925964523                0               0                0               0
5.7464             0.00260949807     -15.9323215      0.666564806    -0.093218048                0               0                0               0
5.7478             0.00304035091     -13.6661653        0.6683547   -0.0938004163                0               0                0               0
5.7492             0.00348019719     -11.9454273      0.670163639   -0.0943444488                0               0                0               0
5.7506              0.0039280903     -10.5964783      0.671992053    -0.094851324                0               0                0               0
5.752              0.00438351946      -9.5116756      0.673840386   -0.0953225138                0               0                0               0
5.7534             0.00484622152     -8.62101048      0.675709094   -0.0957597892                0               0                0               0
5.7548             0.00531608334     -7.87710106      0.677598649   -0.0961652243                0               0                0               0
5.7562             0.00579308786     -7.24678907      0.679509534   -0.0965411993                0               0                0               0
5.7576             0.00627728289     -6.70620223       0.68144225   -0.0968904021                0               0                0               0
5.759              0.00676876224     -6.23773029      0.683397312   -0.0972158276                0               0                0               0
5.7604             0.00726765395     -5.82810559       0.68537525    -0.097520776                0               0                0               0
5.7618             0.00777411277      -5.4671462      0.687376613   -0.0978088485                0               0                0               0
5.7632             0.00828831529     -5.14691014      0.689401963   -0.0980839411                0               0                0               0
5.7646              0.0088104567     -4.86111241      0.691451882   -0.0983502356                0               0                0               0
5.766              0.00934074875     -4.60471444      0.693526968   -0.0986121892                0               0                0               0
5.7674             0.00987941845     -4.37362936      0.695627842   -0.0988745199                0               0                0               0
5.7688              0.0104267072     -4.16450689      0.697755139   -0.0991421902                0               0                0               0
5.7702              0.0109828707     -3.97457367      0.699909518   -0.0994203872                0               0                0               0
5.7716              0.0115481783      -3.8015133      0.702091658   -0.0997144994                0               0                0               0
5.773                0.012122914     -3.64337486      0.704302262    -0.100030091                0               0                0               0
5.7744              0.0127073759     -3.49850242      0.706542054     -0.10037287                0               0                0               0
5.7758              0.0133018774     -3.36548016      0.708811785    -0.100748658                0               0                0               0