! TOUCHSTONE file generated by CST MICROWAVE STUDIO
! Date and time: Sun May 18 12:28:07 2025
! Project name: X波段窗片重构-标准输入.cst
! Parameters = {L=6; PIN=3100; a=20; b=10; blendraduis=2.85; d=5; s=4; ta=16.03; tb=10.61; trh=1.77; wr=11.49; wt=0.91}
! Header version: 2018
! Port assignment regex: !\s*Touchstone port\s*([0-9]+)\s*=\s*(CST MWS port|CST DS port)\s*([0-9]+|Zmin|Zmax)\s*\(\"(.*)\"\)(\s*mode\s*([0-9]+))?.*
! Touchstone port assignment:
! Touchstone port 1 = CST MWS port 1 ("")
! Touchstone port 2 = CST MWS port 2 ("")
! S-Parameters are not renormalized. Unphysical impedance of 0 will be written to the file.
# GHz S MA R 0
5.5                 0.0873753218     -179.560594      0.440422301    0.0354815487                0               0                0               0
5.5014              0.0870963628     -179.485229      0.440722601    0.0188501254                0               0                0               0
5.5028              0.0868276163      -179.41222      0.441024409   0.00257804981                0               0                0               0
5.5042              0.0865686805     -179.341539      0.441327764   -0.0133342651                0               0                0               0
5.5056              0.0863191741      -179.27316      0.441632708    -0.028886468                0               0                0               0
5.507               0.0860787352     -179.207055      0.441939282   -0.0440782705                0               0                0               0
5.5084              0.0858470198     -179.143193      0.442247528    -0.058909449                0               0                0               0
5.5098              0.0856237007     -179.081545      0.442557489   -0.0733798461                0               0                0               0
5.5112              0.0854084669     -179.022082      0.442869207   -0.0874893723                0               0                0               0
5.5126              0.0852010224     -178.964771      0.443182725    -0.101238007                0               0                0               0
5.514               0.0850010854     -178.909582      0.443498089    -0.114625802                0               0                0               0
5.5154              0.0848083874     -178.856483      0.443815341    -0.127652879                0               0                0               0
5.5168              0.0846226726     -178.805443      0.444134527    -0.140319438                0               0                0               0
5.5182              0.0844436973     -178.756429      0.444455692     -0.15262575                0               0                0               0
5.5196              0.0842712288      -178.70941      0.444778882    -0.164572168                0               0                0               0
5.521               0.0841050451     -178.664354      0.445104141    -0.176159121                0               0                0               0
5.5224              0.0839449346     -178.621227      0.445431518     -0.18738712                0               0                0               0
5.5238               0.083790695         -178.58      0.445761059    -0.198256759                0               0                0               0
5.5252               0.083642133     -178.540638       0.44609281    -0.208768716                0               0                0               0
5.5266               0.083499064     -178.503111      0.446426821    -0.218923754                0               0                0               0
5.528               0.0833613117     -178.467386      0.446763139    -0.228722723                0               0                0               0
5.5294              0.0832287072     -178.433433      0.447101812    -0.238166564                0               0                0               0
5.5308              0.0831010892     -178.401219       0.44744289    -0.247256308                0               0                0               0
5.5322              0.0829783031     -178.370714      0.447786421    -0.255993078                0               0                0               0
5.5336              0.0828602013     -178.341887      0.448132456    -0.264378092                0               0                0               0
5.535               0.0827466422     -178.314706      0.448481045    -0.272412662                0               0                0               0
5.5364              0.0826374902     -178.289141      0.448832238      -0.2800982                0               0                0               0
5.5378              0.0825326156     -178.265162      0.449186086    -0.287436215                0               0                0               0
5.5392              0.0824318939     -178.242738      0.449542639    -0.294428317                0               0                0               0
5.5406              0.0823352061     -178.221841       0.44990195     -0.30107622                0               0                0               0
5.542               0.0822424378      -178.20244       0.45026407     -0.30738174                0               0                0               0
5.5434              0.0821534796     -178.184506      0.450629051      -0.3133468                0               0                0               0
5.5448              0.0820682263     -178.168011      0.450996945    -0.318973427                0               0                0               0
5.5462              0.0819865774     -178.152925      0.451367806    -0.324263761                0               0                0               0
5.5476               0.081908436     -178.139221      0.451741686     -0.32922005                0               0                0               0
5.549               0.0818337097     -178.126869      0.452118637    -0.333844652                0               0                0               0
5.5504              0.0817623094     -178.115843      0.452498714    -0.338140041                0               0                0               0
5.5518              0.0816941498     -178.106115       0.45288197    -0.342108803                0               0                0               0
5.5532              0.0816291492     -178.097657       0.45326846    -0.345753642                0               0                0               0
5.5546              0.0815672288     -178.090443      0.453658235    -0.349077378                0               0                0               0
5.556               0.0815083133     -178.084445      0.454051352    -0.352082951                0               0                0               0
5.5574              0.0814523303     -178.079638      0.454447864    -0.354773418                0               0                0               0
5.5588              0.0813992105     -178.075995      0.454847826     -0.35715196                0               0                0               0
5.5602              0.0813488873      -178.07349      0.455251292     -0.35922188                0               0                0               0
5.5616              0.0813012966     -178.072098      0.455658317    -0.360986602                0               0                0               0
5.563               0.0812563772     -178.071793      0.456068955    -0.362449679                0               0                0               0
5.5644              0.0812140702      -178.07255      0.456483262    -0.363614785                0               0                0               0
5.5658              0.0811743193     -178.074345      0.456901292    -0.364485724                0               0                0               0
5.5672              0.0811370703     -178.077151        0.4573231    -0.365066425                0               0                0               0
5.5686              0.0811022714     -178.080946       0.45774874    -0.365360948                0               0                0               0
5.57                0.0810698729     -178.085705      0.458178268    -0.365373481                0               0                0               0
5.5714              0.0810398272     -178.091403      0.458611737     -0.36510834                0               0                0               0
5.5728              0.0810120887     -178.098018      0.459049203    -0.364569975                0               0                0               0
5.5742              0.0809866138     -178.105525      0.459490721    -0.363762965                0               0                0               0
5.5756              0.0809633607     -178.113902      0.459936343     -0.36269202                0               0                0               0
5.577               0.0809422896     -178.123124      0.460386125    -0.361361984                0               0                0               0
5.5784              0.0809233622      -178.13317       0.46084012    -0.359777832                0               0                0               0
5.5798              0.0809065421     -178.144016      0.461298382     -0.35794467                0               0                0               0
5.5812              0.0808917947      -178.15564      0.461760964    -0.355867741                0               0                0               0
5.5826              0.0808790868      -178.16802       0.46222792    -0.353552415                0               0                0               0
5.584               0.0808683869     -178.181132      0.462699302    -0.351004199                0               0                0               0
5.5854              0.0808596649     -178.194956      0.463175162    -0.348228729                0               0                0               0
5.5868              0.0808528924      -178.20947      0.463655553    -0.345231775                0               0                0               0
5.5882              0.0808480424     -178.224651      0.464140526    -0.342019238                0               0                0               0
5.5896              0.0808450893     -178.240478      0.464630132    -0.338597149                0               0                0               0
5.591               0.0808440089      -178.25693      0.465124422     -0.33497167                0               0                0               0
5.5924              0.0808447783     -178.273985      0.465623445    -0.331149092                0               0                0               0
5.5938              0.0808473761     -178.291622      0.466127252    -0.327135834                0               0                0               0
5.5952              0.0808517821     -178.309821      0.466635891    -0.322938443                0               0                0               0
5.5966              0.0808579775      -178.32856      0.467149409    -0.318563591                0               0                0               0
5.598               0.0808659445     -178.347819      0.467667855    -0.314018075                0               0                0               0
5.5994              0.0808756669     -178.367578      0.468191276    -0.309308815                0               0                0               0
5.6008              0.0808871295     -178.387814      0.468719716    -0.304442853                0               0                0               0
5.6022              0.0809003183      -178.40851      0.469253222    -0.299427349                0               0                0               0
5.6036              0.0809152206     -178.429643      0.469791837    -0.294269579                0               0                0               0
5.605               0.0809318249     -178.451194      0.470335605    -0.288976938                0               0                0               0
5.6064              0.0809501207     -178.473142      0.470884568    -0.283556931                0               0                0               0
5.6078              0.0809700988     -178.495469      0.471438767    -0.278017172                0               0                0               0
5.6092              0.0809917511     -178.518154      0.471998243    -0.272365383                0               0                0               0
5.6106              0.0810150705     -178.541177      0.472563035    -0.266609392                0               0                0               0
5.612               0.0810400513     -178.564518       0.47313318    -0.260757125                0               0                0               0
5.6134              0.0810666886     -178.588159      0.473708716    -0.254816608                0               0                0               0
5.6148              0.0810949789     -178.612079      0.474289678     -0.24879596                0               0                0               0
5.6162              0.0811249196      -178.63626        0.4748761    -0.242703389                0               0                0               0
5.6176              0.0811565093     -178.660681      0.475468015    -0.236547191                0               0                0               0
5.619               0.0811897476     -178.685324      0.476065454    -0.230335742                0               0                0               0
5.6204              0.0812246354     -178.710169      0.476668449    -0.224077497                0               0                0               0
5.6218              0.0812611745     -178.735199      0.477277026    -0.217780983                0               0                0               0
5.6232              0.0812993678     -178.760392      0.477891214    -0.211454794                0               0                0               0
5.6246              0.0813392195     -178.785732      0.478511037    -0.205107587                0               0                0               0
5.626               0.0813807347     -178.811198      0.479136519    -0.198748077                0               0                0               0
5.6274              0.0814239197     -178.836772      0.479767683    -0.192385029                0               0                0               0
5.6288              0.0814687819     -178.862436      0.480404548    -0.186027254                0               0                0               0
5.6302              0.0815153298     -178.888171      0.481047132    -0.179683601                0               0                0               0
5.6316              0.0815635731     -178.913958      0.481695453    -0.173362954                0               0                0               0
5.633               0.0816135226      -178.93978      0.482349524     -0.16707422                0               0                0               0
5.6344              0.0816651901     -178.965617      0.483009359    -0.160826329                0               0                0               0
5.6358              0.0817185889     -178.991452      0.483674968    -0.154628218                0               0                0               0
5.6372              0.0817737331     -179.017267       0.48434636    -0.148488831                0               0                0               0
5.6386              0.0818306381     -179.043043       0.48502354    -0.142417108                0               0                0               0
5.64                0.0818893207     -179.068763      0.485706513    -0.136421977                0               0                0               0
5.6414              0.0819497985     -179.094408      0.486395281    -0.130512346                0               0                0               0
5.6428              0.0820120908     -179.119962      0.487089843    -0.124697092                0               0                0               0
5.6442              0.0820762177     -179.145407      0.487790198    -0.118985057                0               0                0               0
5.6456              0.0821422008     -179.170724      0.488496338    -0.113385033                0               0                0               0
5.647               0.0822100629     -179.195897      0.489208258    -0.107905757                0               0                0               0
5.6484              0.0822798281     -179.220909      0.489925947    -0.102555898                0               0                0               0
5.6498              0.0823515218     -179.245742      0.490649391   -0.0973440473                0               0                0               0
5.6512              0.0824251708      -179.27038      0.491378577   -0.0922787103                0               0                0               0
5.6526              0.0825008032     -179.294806      0.492113487   -0.0873682924                0               0                0               0
5.654               0.0825784483     -179.319002      0.492854099   -0.0826210897                0               0                0               0
5.6554              0.0826581372     -179.342954       0.49360039    -0.078045277                0               0                0               0
5.6568               0.082739902     -179.366643      0.494352335   -0.0736488959                0               0                0               0
5.6582              0.0828237765     -179.390055      0.495109905   -0.0694398426                0               0                0               0
5.6596              0.0829097959     -179.413173      0.495873069   -0.0654258558                0               0                0               0
5.661               0.0829979969     -179.435981      0.496641791   -0.0616145034                0               0                0               0
5.6624              0.0830884177     -179.458465      0.497416035   -0.0580131695                0               0                0               0
5.6638              0.0831810982     -179.480608       0.49819576   -0.0546290413                0               0                0               0
5.6652              0.0832760796     -179.502396      0.498980923   -0.0514690946                0               0                0               0
5.6666              0.0833734052     -179.523814      0.499771478   -0.0485400802                0               0                0               0
5.668               0.0834731193     -179.544847      0.500567377   -0.0458485093                0               0                0               0
5.6694              0.0835752686      -179.56548      0.501368566   -0.0434006386                0               0                0               0
5.6708              0.0836799009     -179.585701      0.502174992   -0.0412024551                0               0                0               0
5.6722              0.0837870661     -179.605495      0.502986595   -0.0392596609                0               0                0               0
5.6736              0.0838968158     -179.624849      0.503803315   -0.0375776571                0               0                0               0
5.675               0.0840092036      -179.64375      0.504625087   -0.0361615281                0               0                0               0
5.6764              0.0841242845     -179.662185      0.505451845   -0.0350160247                0               0                0               0
5.6778               0.084242116     -179.680142      0.506283519   -0.0341455476                0               0                0               0
5.6792              0.0843627572     -179.697608      0.507120036   -0.0335541303                0               0                0               0
5.6806              0.0844862692     -179.714573      0.507961319   -0.0332454217                0               0                0               0
5.682               0.0846127153     -179.731025       0.50880729   -0.0332226685                0               0                0               0
5.6834              0.0847421606     -179.746954      0.509657867    -0.033488697                0               0                0               0
5.6848              0.0848746726     -179.762348      0.510512966   -0.0340458952                0               0                0               0
5.6862              0.0850103209       -179.7772        0.5113725   -0.0348961941                0               0                0               0
5.6876              0.0851491773     -179.791499      0.512236378   -0.0360410487                0               0                0               0
5.689               0.0852913157     -179.805236      0.513104508   -0.0374814195                0               0                0               0
5.6904              0.0854368126     -179.818404      0.513976795   -0.0392177526                0               0                0               0
5.6918              0.0855857466     -179.830995      0.514853142   -0.0412499607                0               0                0               0
5.6932               0.085738199     -179.843002      0.515733449   -0.0435774031                0               0                0               0
5.6946              0.0858942533     -179.854419      0.516617613   -0.0461988662                0               0                0               0
5.696               0.0860539957      -179.86524       0.51750553   -0.0491125432                0               0                0               0
5.6974              0.0862175148      -179.87546      0.518397095   -0.0523160139                0               0                0               0
5.6988              0.0863849021     -179.885075        0.5192922   -0.0558062248                0               0                0               0
5.7002              0.0865562515     -179.894081      0.520190734   -0.0595794688                0               0                0               0
5.7016              0.0867316599     -179.902475      0.521092587   -0.0636313646                0               0                0               0
5.703               0.0869112269     -179.910256      0.521997647    -0.067956837                0               0                0               0
5.7044              0.0870950549     -179.917423        0.5229058    -0.072550096                0               0                0               0
5.7058              0.0872832494     -179.923974      0.523816932   -0.0774046177                0               0                0               0
5.7072              0.0874759188     -179.929911      0.524730928   -0.0825131237                0               0                0               0
5.7086              0.0876731745     -179.935236      0.525647674    -0.087867562                0               0                0               0
5.71                0.0878751311      -179.93995      0.526567054   -0.0934590877                0               0                0               0
5.7114              0.0880819066     -179.944056      0.527488953   -0.0992780441                0               0                0               0
5.7128              0.0882936218      -179.94756      0.528413259    -0.105313945                0               0                0               0
5.7142              0.0885104013     -179.950467      0.529339856    -0.111555456                0               0                0               0
5.7156              0.0887323728     -179.952783      0.530268634     -0.11799038                0               0                0               0
5.717               0.0889596676     -179.954516      0.531199482    -0.124605639                0               0                0               0
5.7184              0.0891924206     -179.955675      0.532132294    -0.131387259                0               0                0               0
5.7198              0.0894307702     -179.956269      0.533066963    -0.138320359                0               0                0               0
5.7212              0.0896748586      -179.95631      0.534003388    -0.145389136                0               0                0               0
5.7226              0.0899248318     -179.955809       0.53494147    -0.152576857                0               0                0               0
5.724               0.0901808395      -179.95478      0.535881117    -0.159865848                0               0                0               0
5.7254              0.0904430356     -179.953239      0.536822238    -0.167237487                0               0                0               0
5.7268              0.0907115778       -179.9512       0.53776475    -0.174672201                0               0                0               0
5.7282               0.090986628     -179.948682      0.538708575    -0.182149464                0               0                0               0
5.7296              0.0912683524     -179.945703      0.539653644    -0.189647798                0               0                0               0
5.731               0.0915569214     -179.942282      0.540599892    -0.197144777                0               0                0               0
5.7324              0.0918525097     -179.938442      0.541547266    -0.204617035                0               0                0               0
5.7338              0.0921552965     -179.934206      0.542495721    -0.212040278                0               0                0               0
5.7352              0.0924654658     -179.929596       0.54344522    -0.219389303                0               0                0               0
5.7366              0.0927832061     -179.924639       0.54439574    -0.226638019                0               0                0               0
5.738               0.0931087105     -179.919362      0.545347268    -0.233759472                0               0                0               0
5.7394              0.0934421774     -179.913793      0.546299805    -0.240725884                0               0                0               0
5.7408              0.0937838099     -179.907962      0.547253367     -0.24750869                0               0                0               0
5.7422              0.0941338162       -179.9019      0.548207983    -0.254078591                0               0                0               0
5.7436              0.0944924099      -179.89564      0.549163698    -0.260405607                0               0                0               0
5.745               0.0948598098     -179.889214      0.550120578    -0.266459147                0               0                0               0
5.7464              0.0952362405      -179.88266      0.551078705    -0.272208086                0               0                0               0
5.7478              0.0956219317     -179.876012       0.55203818    -0.277620854                0               0                0               0
5.7492              0.0960171195      -179.86931      0.552999129    -0.282665535                0               0                0               0
5.7506              0.0964220454     -179.862592      0.553961696    -0.287309986                0               0                0               0
5.752               0.0968369574     -179.855898      0.554926053    -0.291521965                0               0                0               0
5.7534              0.0972621095     -179.849269      0.555892395    -0.295269276                0               0                0               0
5.7548              0.0976977624     -179.842749      0.556860944    -0.298519938                0               0                0               0
5.7562              0.0981441835      -179.83638      0.557831952    -0.301242366                0               0                0               0
5.7576              0.0986016468     -179.830206      0.558805698    -0.303405574                0               0                0               0
5.759               0.0990704338     -179.824274      0.559782493    -0.304979408                0               0                0               0
5.7604              0.0995508334     -179.818627      0.560762681    -0.305934795                0               0                0               0
5.7618               0.100043142     -179.813313      0.561746636    -0.306244021                0               0                0               0
5.7632               0.100547664     -179.808378      0.562734772     -0.30588104                0               0                0               0
5.7646               0.101064712     -179.803869      0.563727532    -0.304821814                0               0                0               0
5.766                0.101594609     -179.799833      0.564725401    -0.303044677                0               0                0               0
5.7674               0.102137685     -179.796317      0.565728898    -0.300530743                0               0                0               0
5.7688                0.10269428     -179.793366      0.566738579    -0.297264347                0               0                0               0
5.7702               0.103264746     -179.791027      0.567755038    -0.293233519                0               0                0               0
5.7716               0.103849443     -179.789345      0.568778907    -0.288430503                0               0                0               0
5.773                0.104448745     -179.788364      0.569810852    -0.282852316                0               0                0               0
5.7744               0.105063037     -179.788127      0.570851578    -0.276501343                0               0                0               0
5.7758               0.105692717     -179.788674      0.571901818    -0.269385981                0               0                0               0