! TOUCHSTONE file generated by CST MICROWAVE STUDIO
! Date and time: Sat May 17 23:11:20 2025
! Project name: X波段窗片重构-标准输入.cst
! Parameters = {L=6; PIN=3100; a=20; b=10; blendraduis=2.85; d=5; s=4; ta=16.03; tb=10.61; trh=1.69; wr=11.49; wt=0.98}
! Header version: 2018
! Port assignment regex: !\s*Touchstone port\s*([0-9]+)\s*=\s*(CST MWS port|CST DS port)\s*([0-9]+|Zmin|Zmax)\s*\(\"(.*)\"\)(\s*mode\s*([0-9]+))?.*
! Touchstone port assignment:
! Touchstone port 1 = CST MWS port 1 ("")
! Touchstone port 2 = CST MWS port 2 ("")
! S-Parameters are not renormalized. Unphysical impedance of 0 will be written to the file.
# GHz S MA R 0
5.5                 0.0638400496     -179.351509      0.473469401     0.025363379                0               0                0               0
5.5014               0.063552212     -179.350609      0.473853738     0.023412847                0               0                0               0
5.5028              0.0632665364     -179.349827      0.474242127    0.0215312216                0               0                0               0
5.5042               0.062982991     -179.349158      0.474634584    0.0197172803                0               0                0               0
5.5056              0.0627015445     -179.348599      0.475031121    0.0179697852                0               0                0               0
5.507               0.0624221663     -179.348143      0.475431752    0.0162874829                0               0                0               0
5.5084              0.0621448262     -179.347787      0.475836492     0.014669106                0               0                0               0
5.5098              0.0618694947     -179.347526      0.476245354    0.0131133732                0               0                0               0
5.5112              0.0615961429     -179.347356      0.476658352    0.0116189903                0               0                0               0
5.5126              0.0613247423     -179.347272      0.477075499    0.0101846509                0               0                0               0
5.514                0.061055265     -179.347269      0.477496811   0.00880903702                0               0                0               0
5.5154              0.0607876836     -179.347345      0.477922299   0.00749081992                0               0                0               0
5.5168              0.0605219712     -179.347494      0.478351978   0.00622866086                0               0                0               0
5.5182              0.0602581015     -179.347713      0.478785861   0.00502121183                0               0                0               0
5.5196              0.0599960484     -179.347998      0.479223963    0.0038671163                0               0                0               0
5.521               0.0597357865     -179.348344      0.479666295      0.00276501                0               0                0               0
5.5224              0.0594772909     -179.348747      0.480112872   0.00171352172                0               0                0               0
5.5238              0.0592205369     -179.349205      0.480563708  0.000711274032                0               0                0               0
5.5252              0.0589655005     -179.349714      0.481018815 -0.000243115845                0               0                0               0
5.5266              0.0587121579     -179.350269      0.481478207   -0.0011510353                0               0                0               0
5.528               0.0584604858     -179.350867      0.481941897   -0.0020138755                0               0                0               0
5.5294              0.0582104613     -179.351505      0.482409899  -0.00283303059                0               0                0               0
5.5308              0.0579620619     -179.352179      0.482882225   -0.0036098969                0               0                0               0
5.5322              0.0577152655     -179.352886      0.483358889  -0.00434587206                0               0                0               0
5.5336              0.0574700504     -179.353622      0.483839905  -0.00504235427                0               0                0               0
5.535               0.0572263952     -179.354385      0.484325284  -0.00570074138                0               0                0               0
5.5364              0.0569842787     -179.355171      0.484815042  -0.00632243011                0               0                0               0
5.5378              0.0567436804     -179.355977      0.485309189   -0.0069088152                0               0                0               0
5.5392                0.05650458       -179.3568      0.485807741  -0.00746128854                0               0                0               0
5.5406              0.0562669573     -179.357638      0.486310709  -0.00798123837                0               0                0               0
5.542               0.0560307926     -179.358486      0.486818108  -0.00847004842                0               0                0               0
5.5434              0.0557960667     -179.359343      0.487329949  -0.00892909702                0               0                0               0
5.5448              0.0555627604     -179.360206      0.487846247  -0.00935975631                0               0                0               0
5.5462              0.0553308549     -179.361071      0.488367013  -0.00976339134                0               0                0               0
5.5476              0.0551003318     -179.361937      0.488892262   -0.0101413592                0               0                0               0
5.549               0.0548711728       -179.3628      0.489422007   -0.0104950083                0               0                0               0
5.5504                0.05464336     -179.363659       0.48995626   -0.0108256772                0               0                0               0
5.5518              0.0544168758      -179.36451      0.490495035   -0.0111346942                0               0                0               0
5.5532              0.0541917027     -179.365352      0.491038344   -0.0114233761                0               0                0               0
5.5546              0.0539678235     -179.366182      0.491586202   -0.0116930275                0               0                0               0
5.556               0.0537452215     -179.366998      0.492138621   -0.0119449399                0               0                0               0
5.5574              0.0535238798     -179.367798      0.492695615   -0.0121803911                0               0                0               0
5.5588              0.0533037822     -179.368579      0.493257196   -0.0124006438                0               0                0               0
5.5602              0.0530849124      -179.36934      0.493823379   -0.0126069455                0               0                0               0
5.5616              0.0528672544     -179.370078      0.494394176   -0.0128005269                0               0                0               0
5.563               0.0526507924     -179.370791      0.494969602   -0.0129826015                0               0                0               0
5.5644               0.052435511     -179.371479      0.495549669   -0.0131543649                0               0                0               0
5.5658              0.0522213948     -179.372138      0.496134391   -0.0133169935                0               0                0               0
5.5672              0.0520084286     -179.372768      0.496723783   -0.0134716442                0               0                0               0
5.5686              0.0517965976     -179.373366      0.497317857    -0.013619453                0               0                0               0
5.57                0.0515858868     -179.373931      0.497916628    -0.013761535                0               0                0               0
5.5714              0.0513762819     -179.374461      0.498520109   -0.0138989827                0               0                0               0
5.5728              0.0511677683     -179.374956      0.499128316   -0.0140328659                0               0                0               0
5.5742              0.0509603318     -179.375412      0.499741262   -0.0141642306                0               0                0               0
5.5756              0.0507539584      -179.37583      0.500358961   -0.0142940984                0               0                0               0
5.577               0.0505486342     -179.376208      0.500981428   -0.0144234657                0               0                0               0
5.5784              0.0503443454     -179.376544      0.501608678   -0.0145533028                0               0                0               0
5.5798              0.0501410785     -179.376838      0.502240726   -0.0146845533                0               0                0               0
5.5812              0.0499388199     -179.377087      0.502877586   -0.0148181336                0               0                0               0
5.5826              0.0497375565     -179.377292      0.503519273   -0.0149549318                0               0                0               0
5.584                0.049537275     -179.377452      0.504165805   -0.0150958072                0               0                0               0
5.5854              0.0493379624     -179.377564      0.504817194     -0.01524159                0               0                0               0
5.5868              0.0491396058     -179.377629      0.505473459   -0.0153930799                0               0                0               0
5.5882              0.0489421925     -179.377646      0.506134614    -0.015551046                0               0                0               0
5.5896              0.0487457097     -179.377613      0.506800676   -0.0157162263                0               0                0               0
5.591                0.048550145     -179.377531      0.507471662   -0.0158893267                0               0                0               0
5.5924              0.0483554858     -179.377398      0.508147588   -0.0160710207                0               0                0               0
5.5938              0.0481617199     -179.377214      0.508828472   -0.0162619486                0               0                0               0
5.5952               0.047968835     -179.376979      0.509514331   -0.0164627175                0               0                0               0
5.5966               0.047776819     -179.376691      0.510205182   -0.0166739004                0               0                0               0
5.598                 0.04758566     -179.376351      0.510901044   -0.0168960356                0               0                0               0
5.5994              0.0473953458     -179.375958      0.511601936   -0.0171296266                0               0                0               0
5.6008              0.0472058647     -179.375512      0.512307875   -0.0173751419                0               0                0               0
5.6022              0.0470172049     -179.375013      0.513018882   -0.0176330137                0               0                0               0
5.6036              0.0468293548     -179.374461      0.513734975   -0.0179036386                0               0                0               0
5.605               0.0466423025     -179.373854      0.514456175   -0.0181873766                0               0                0               0
5.6064              0.0464560368     -179.373194      0.515182502   -0.0184845512                0               0                0               0
5.6078              0.0462705459     -179.372481      0.515913977   -0.0187954489                0               0                0               0
5.6092              0.0460858185     -179.371713      0.516650621   -0.0191203191                0               0                0               0
5.6106              0.0459018433     -179.370892      0.517392456   -0.0194593739                0               0                0               0
5.612                0.045718609     -179.370017      0.518139504   -0.0198127879                0               0                0               0
5.6134              0.0455361042     -179.369089      0.518891789   -0.0201806982                0               0                0               0
5.6148              0.0453543178     -179.368108      0.519649333   -0.0205632045                0               0                0               0
5.6162              0.0451732385     -179.367074      0.520412161   -0.0209603685                0               0                0               0
5.6176              0.0449928554     -179.365987      0.521180297   -0.0213722148                0               0                0               0
5.619               0.0448131573     -179.364848      0.521953767     -0.02179873                0               0                0               0
5.6204              0.0446341331     -179.363658      0.522732595   -0.0222398637                0               0                0               0
5.6218              0.0444557718     -179.362415      0.523516809    -0.022695528                0               0                0               0
5.6232              0.0442780625     -179.361122      0.524306436   -0.0231655981                0               0                0               0
5.6246              0.0441009942     -179.359778      0.525101503   -0.0236499126                0               0                0               0
5.626               0.0439245559     -179.358385       0.52590204   -0.0241482735                0               0                0               0
5.6274              0.0437487367     -179.356942      0.526708075   -0.0246604466                0               0                0               0
5.6288              0.0435735257      -179.35545      0.527519639   -0.0251861625                0               0                0               0
5.6302              0.0433989121      -179.35391      0.528336762   -0.0257251163                0               0                0               0
5.6316              0.0432248849     -179.352323      0.529159477   -0.0262769686                0               0                0               0
5.633               0.0430514332     -179.350688      0.529987816    -0.026841346                0               0                0               0
5.6344              0.0428785462     -179.349008      0.530821813   -0.0274178417                0               0                0               0
5.6358              0.0427062131     -179.347282      0.531661502   -0.0280060163                0               0                0               0
5.6372              0.0425344228     -179.345511      0.532506918   -0.0286053986                0               0                0               0
5.6386              0.0423631647     -179.343697      0.533358099   -0.0292154862                0               0                0               0
5.64                0.0421924277     -179.341839      0.534215081   -0.0298357469                0               0                0               0
5.6414               0.042022201     -179.339939      0.535077902    -0.030465619                0               0                0               0
5.6428              0.0418524737     -179.337997      0.535946604   -0.0311045132                0               0                0               0
5.6442              0.0416832349     -179.336015      0.536821225   -0.0317518127                0               0                0               0
5.6456              0.0415144736     -179.333992      0.537701808   -0.0324068752                0               0                0               0
5.647               0.0413461789      -179.33193      0.538588396    -0.033069034                0               0                0               0
5.6484              0.0411783398     -179.329829      0.539481032   -0.0337375989                0               0                0               0
5.6498              0.0410109453     -179.327691      0.540379763   -0.0344118581                0               0                0               0
5.6512              0.0408439844     -179.325516      0.541284634   -0.0350910793                0               0                0               0
5.6526               0.040677446     -179.323304      0.542195695   -0.0357745114                0               0                0               0
5.654                0.040511319     -179.321057      0.543112993   -0.0364613864                0               0                0               0
5.6554              0.0403455924     -179.318775       0.54403658   -0.0371509204                0               0                0               0
5.6568              0.0401802549     -179.316459      0.544966508    -0.037842316                0               0                0               0
5.6582              0.0400152955     -179.314109      0.545902829   -0.0385347639                0               0                0               0
5.6596              0.0398507028     -179.311726        0.5468456   -0.0392274448                0               0                0               0
5.661               0.0396864656      -179.30931      0.547794876   -0.0399195315                0               0                0               0
5.6624              0.0395225726     -179.306863      0.548750716   -0.0406101907                0               0                0               0
5.6638              0.0393590124     -179.304384      0.549713178   -0.0412985855                0               0                0               0
5.6652              0.0391957738     -179.301874      0.550682325   -0.0419838775                0               0                0               0
5.6666              0.0390328451     -179.299333      0.551658218   -0.0426652288                0               0                0               0
5.668                0.038870215     -179.296761      0.552640923   -0.0433418047                0               0                0               0
5.6694               0.038707872     -179.294159      0.553630506   -0.0440127761                0               0                0               0
5.6708              0.0385458043     -179.291527      0.554627034   -0.0446773219                0               0                0               0
5.6722              0.0383840005     -179.288864      0.555630578   -0.0453346315                0               0                0               0
5.6736              0.0382224489     -179.286171      0.556641208   -0.0459839074                0               0                0               0
5.675               0.0380611376     -179.283448      0.557658999   -0.0466243683                0               0                0               0
5.6764               0.037900055     -179.280694      0.558684026   -0.0472552514                0               0                0               0
5.6778              0.0377391892     -179.277909      0.559716367   -0.0478758152                0               0                0               0
5.6792              0.0375785283     -179.275092      0.560756099   -0.0484853427                0               0                0               0
5.6806              0.0374180604     -179.272243      0.561803306   -0.0490831439                0               0                0               0
5.682               0.0372577735     -179.269361       0.56285807   -0.0496685593                0               0                0               0
5.6834              0.0370976555     -179.266445      0.563920476   -0.0502409622                0               0                0               0
5.6848              0.0369376944     -179.263495      0.564990613   -0.0507997623                0               0                0               0
5.6862               0.036777878     -179.260509      0.566068569   -0.0513444082                0               0                0               0
5.6876               0.036618194     -179.257485      0.567154438   -0.0518743912                0               0                0               0
5.689               0.0364586303     -179.254423      0.568248313   -0.0523892475                0               0                0               0
5.6904              0.0362991746     -179.251321       0.56935029    -0.052888562                0               0                0               0
5.6918              0.0361398144     -179.248176      0.570460469   -0.0533719711                0               0                0               0
5.6932              0.0359805373     -179.244988       0.57157895   -0.0538391658                0               0                0               0
5.6946               0.035821331     -179.241754      0.572705837   -0.0542898946                0               0                0               0
5.696               0.0356621828     -179.238471      0.573841236   -0.0547239668                0               0                0               0
5.6974              0.0355030804     -179.235137      0.574985255   -0.0551412553                0               0                0               0
5.6988              0.0353440109     -179.231749      0.576138004   -0.0555416997                0               0                0               0
5.7002              0.0351849619     -179.228304      0.577299598   -0.0559253087                0               0                0               0
5.7016              0.0350259206       -179.2248      0.578470151   -0.0562921635                0               0                0               0
5.703               0.0348668742     -179.221232      0.579649782   -0.0566424201                0               0                0               0
5.7044              0.0347078102     -179.217597      0.580838612    -0.056976312                0               0                0               0
5.7058              0.0345487155     -179.213891      0.582036765   -0.0572941526                0               0                0               0
5.7072              0.0343895775      -179.21011      0.583244366   -0.0575963376                0               0                0               0
5.7086              0.0342303832      -179.20625      0.584461545    -0.057883347                0               0                0               0
5.71                0.0340711198     -179.202306      0.585688433   -0.0581557472                0               0                0               0
5.7114              0.0339117743     -179.198272      0.586925165   -0.0584141928                0               0                0               0
5.7128              0.0337523338     -179.194144      0.588171878   -0.0586594282                0               0                0               0
5.7142              0.0335927853     -179.189917       0.58942871   -0.0588922888                0               0                0               0
5.7156              0.0334331159     -179.185584      0.590695807   -0.0591137019                0               0                0               0
5.717               0.0332733125     -179.181139      0.591973312   -0.0593246881                0               0                0               0
5.7184              0.0331133622     -179.176577      0.593261374   -0.0595263612                0               0                0               0
5.7198              0.0329532519      -179.17189      0.594560145   -0.0597199285                0               0                0               0
5.7212              0.0327929687     -179.167072      0.595869779   -0.0599066907                0               0                0               0
5.7226              0.0326324994     -179.162115      0.597190434   -0.0600880412                0               0                0               0
5.724               0.0324718311     -179.157012      0.598522269   -0.0602654653                0               0                0               0
5.7254              0.0323109507     -179.151755      0.599865449   -0.0604405384                0               0                0               0
5.7268              0.0321498453     -179.146336       0.60122014   -0.0606149245                0               0                0               0
5.7282              0.0319885019     -179.140747      0.602586512   -0.0607903734                0               0                0               0
5.7296              0.0318269074     -179.134978      0.603964737   -0.0609687183                0               0                0               0
5.731                0.031665049     -179.129021      0.605354991   -0.0611518718                0               0                0               0
5.7324              0.0315029137     -179.122866      0.606757455   -0.0613418221                0               0                0               0
5.7338              0.0313404885     -179.116504      0.608172311   -0.0615406286                0               0                0               0
5.7352              0.0311777607     -179.109925      0.609599746   -0.0617504162                0               0                0               0
5.7366              0.0310147173     -179.103119      0.611039948   -0.0619733694                0               0                0               0
5.738               0.0308513455     -179.096075      0.612493112   -0.0622117261                0               0                0               0
5.7394              0.0306876326     -179.088782      0.613959434   -0.0624677698                0               0                0               0
5.7408              0.0305235658     -179.081231      0.615439116   -0.0627438216                0               0                0               0
5.7422              0.0303591324     -179.073409      0.616932362   -0.0630422316                0               0                0               0
5.7436              0.0301943197     -179.065304       0.61843938   -0.0633653691                0               0                0               0
5.745               0.0300291152     -179.056907      0.619960384   -0.0637156124                0               0                0               0
5.7464              0.0298635062     -179.048204      0.621495591   -0.0640953374                0               0                0               0
5.7478              0.0296974803     -179.039183      0.623045222   -0.0645069056                0               0                0               0
5.7492              0.0295310249     -179.029834      0.624609503   -0.0649526517                0               0                0               0
5.7506              0.0293641275     -179.020142      0.626188666   -0.0654348694                0               0                0               0
5.752               0.0291967759     -179.010096      0.627782946   -0.0659557977                0               0                0               0
5.7534              0.0290289576     -178.999684      0.629392586   -0.0665176051                0               0                0               0
5.7548              0.0288606603     -178.988893      0.631017831   -0.0671223742                0               0                0               0
5.7562              0.0286918717      -178.97771      0.632658935   -0.0677720848                0               0                0               0
5.7576              0.0285225796     -178.966123      0.634316158   -0.0684685967                0               0                0               0
5.759               0.0283527716     -178.954119      0.635989764   -0.0692136319                0               0                0               0
5.7604              0.0281824356     -178.941687      0.637680026    -0.070008756                0               0                0               0
5.7618              0.0280115594     -178.928813      0.639387225   -0.0708553597                0               0                0               0
5.7632              0.0278401308     -178.915486      0.641111648   -0.0717546394                0               0                0               0
5.7646              0.0276681376     -178.901693      0.642853593   -0.0727075776                0               0                0               0
5.766               0.0274955675     -178.887423      0.644613364   -0.0737149237                0               0                0               0
5.7674              0.0273224084     -178.872664      0.646391277   -0.0747771746                0               0                0               0
5.7688              0.0271486479     -178.857405      0.648187658   -0.0758945554                0               0                0               0
5.7702              0.0269742739     -178.841635      0.650002844   -0.0770670011                0               0                0               0
5.7716              0.0267992739     -178.825343      0.651837182   -0.0782941381                0               0                0               0
5.773               0.0266236355      -178.80852      0.653691036   -0.0795752679                0               0                0               0
5.7744              0.0264473464     -178.791155       0.65556478   -0.0809093512                0               0                0               0
5.7758               0.026270394     -178.773238      0.657458805    -0.082294994                0               0                0               0