! TOUCHSTONE file generated by CST MICROWAVE STUDIO
! Date and time: Sat May 17 23:52:11 2025
! Project name: X波段窗片重构-标准输入.cst
! Parameters = {L=6; PIN=3100; a=20; b=10; blendraduis=2.85; d=5; s=4; ta=15.92; tb=10.61; trh=1.69; wr=11.49; wt=0.91}
! Header version: 2018
! Port assignment regex: !\s*Touchstone port\s*([0-9]+)\s*=\s*(CST MWS port|CST DS port)\s*([0-9]+|Zmin|Zmax)\s*\(\"(.*)\"\)(\s*mode\s*([0-9]+))?.*
! Touchstone port assignment:
! Touchstone port 1 = CST MWS port 1 ("")
! Touchstone port 2 = CST MWS port 2 ("")
! S-Parameters are not renormalized. Unphysical impedance of 0 will be written to the file.
# GHz S MA R 0
5.5                 0.0901902476     -179.567719      0.444250407    0.0361744024                0               0                0               0
5.5014               0.090013408     -179.571269       0.44454903    0.0338922903                0               0                0               0
5.5028              0.0898392963     -179.574691        0.4448501    0.0317559265                0               0                0               0
5.5042              0.0896678935     -179.577986      0.445153641    0.0297625494                0               0                0               0
5.5056              0.0894991814     -179.581159      0.445459674    0.0279093562                0               0                0               0
5.507               0.0893331418     -179.584213      0.445768224    0.0261935042                0               0                0               0
5.5084              0.0891697572      -179.58715      0.446079313    0.0246121111                0               0                0               0
5.5098              0.0890090102     -179.589974      0.446392966    0.0231622564                0               0                0               0
5.5112              0.0888508839     -179.592688      0.446709206    0.0218409821                0               0                0               0
5.5126              0.0886953617     -179.595296      0.447028058    0.0206452939                0               0                0               0
5.514               0.0885424274     -179.597799      0.447349545    0.0195721622                0               0                0               0
5.5154              0.0883920651     -179.600203      0.447673692    0.0186185234                0               0                0               0
5.5168              0.0882442593     -179.602509      0.448000523    0.0177812812                0               0                0               0
5.5182              0.0880989948      -179.60472      0.448330064    0.0170573079                0               0                0               0
5.5196              0.0879562567     -179.606841      0.448662339    0.0164434459                0               0                0               0
5.521               0.0878160305     -179.608873      0.448997373    0.0159365089                0               0                0               0
5.5224               0.087678302     -179.610819      0.449335192    0.0155332838                0               0                0               0
5.5238              0.0875430574     -179.612684      0.449675821    0.0152305322                0               0                0               0
5.5252               0.087410283     -179.614469      0.450019286    0.0150249921                0               0                0               0
5.5266              0.0872799657     -179.616178      0.450365612    0.0149133797                0               0                0               0
5.528               0.0871520925     -179.617814      0.450714827    0.0148923911                0               0                0               0
5.5294              0.0870266508     -179.619379      0.451066956    0.0149587043                0               0                0               0
5.5308              0.0869036284     -179.620877      0.451422025    0.0151089813                0               0                0               0
5.5322              0.0867830132      -179.62231      0.451780061    0.0153398698                0               0                0               0
5.5336              0.0866647937     -179.623682      0.452141092    0.0156480058                0               0                0               0
5.535               0.0865489584     -179.624994      0.452505144    0.0160300151                0               0                0               0
5.5364              0.0864354964      -179.62625      0.452872244     0.016482516                0               0                0               0
5.5378              0.0863243967     -179.627452      0.453242419    0.0170021215                0               0                0               0
5.5392               0.086215649     -179.628604      0.453615698    0.0175854413                0               0                0               0
5.5406              0.0861092431     -179.629708      0.453992107    0.0182290844                0               0                0               0
5.542               0.0860051691     -179.630767      0.454371674    0.0189296614                0               0                0               0
5.5434              0.0859034174     -179.631783      0.454754428    0.0196837871                0               0                0               0
5.5448              0.0858039789      -179.63276      0.455140396    0.0204880825                0               0                0               0
5.5462              0.0857068444     -179.633698      0.455529606    0.0213391778                0               0                0               0
5.5476              0.0856120053     -179.634603      0.455922087    0.0222337146                0               0                0               0
5.549               0.0855194532     -179.635474      0.456317867    0.0231683483                0               0                0               0
5.5504                0.08542918     -179.636317      0.456716974    0.0241397511                0               0                0               0
5.5518              0.0853411778     -179.637132      0.457119437    0.0251446139                0               0                0               0
5.5532               0.085255439     -179.637922      0.457525284    0.0261796493                0               0                0               0
5.5546              0.0851719565      -179.63869      0.457934543    0.0272415938                0               0                0               0
5.556               0.0850907233     -179.639438      0.458347244    0.0283272106                0               0                0               0
5.5574              0.0850117326     -179.640169      0.458763415    0.0294332915                0               0                0               0
5.5588              0.0849349782     -179.640884      0.459183084    0.0305566602                0               0                0               0
5.5602              0.0848604538     -179.641586       0.45960628    0.0316941739                0               0                0               0
5.5616              0.0847881537     -179.642278      0.460033031    0.0328427261                0               0                0               0
5.563               0.0847180723     -179.642961      0.460463366    0.0339992487                0               0                0               0
5.5644              0.0846502044     -179.643638      0.460897312    0.0351607146                0               0                0               0
5.5658               0.084584545     -179.644311      0.461334898    0.0363241393                0               0                0               0
5.5672              0.0845210896     -179.644981      0.461776153    0.0374865836                0               0                0               0
5.5686              0.0844598336     -179.645652      0.462221103    0.0386451554                0               0                0               0
5.57                 0.084400773     -179.646325      0.462669776    0.0397970117                0               0                0               0
5.5714              0.0843439041     -179.647002        0.4631222    0.0409393604                0               0                0               0
5.5728              0.0842892233     -179.647684      0.463578402    0.0420694622                0               0                0               0
5.5742              0.0842367274     -179.648375      0.464038409    0.0431846325                0               0                0               0
5.5756              0.0841864136     -179.649075      0.464502247    0.0442822426                0               0                0               0
5.577               0.0841382792     -179.649787      0.464969944    0.0453597215                0               0                0               0
5.5784               0.084092322     -179.650512      0.465441524    0.0464145571                0               0                0               0
5.5798                0.08404854     -179.651252      0.465917013    0.0474442977                0               0                0               0
5.5812              0.0840069314     -179.652008      0.466396437    0.0484465531                0               0                0               0
5.5826              0.0839674949     -179.652783       0.46687982    0.0494189957                0               0                0               0
5.584               0.0839302294     -179.653577      0.467367186    0.0503593611                0               0                0               0
5.5854              0.0838951343     -179.654393       0.46785856    0.0512654496                0               0                0               0
5.5868               0.083862209     -179.655232      0.468353965    0.0521351265                0               0                0               0
5.5882              0.0838314534     -179.656095      0.468853424    0.0529663226                0               0                0               0
5.5896              0.0838028678     -179.656983      0.469356959    0.0537570352                0               0                0               0
5.591               0.0837764527     -179.657898      0.469864591     0.054505328                0               0                0               0
5.5924              0.0837522089     -179.658842      0.470376341    0.0552093315                0               0                0               0
5.5938              0.0837301378     -179.659814      0.470892231    0.0558672436                0               0                0               0
5.5952              0.0837102408     -179.660818       0.47141228     0.056477329                0               0                0               0
5.5966              0.0836925199     -179.661852      0.471936506    0.0570379198                0               0                0               0
5.598               0.0836769772      -179.66292      0.472464929    0.0575474151                0               0                0               0
5.5994              0.0836636155     -179.664021      0.472997566    0.0580042808                0               0                0               0
5.6008              0.0836524376     -179.665156      0.473534435    0.0584070496                0               0                0               0
5.6022               0.083643447     -179.666327       0.47407555    0.0587543204                0               0                0               0
5.6036              0.0836366472     -179.667533      0.474620928    0.0590447579                0               0                0               0
5.605               0.0836320424     -179.668777      0.475170583    0.0592770925                0               0                0               0
5.6064              0.0836296371     -179.670058       0.47572453    0.0594501195                0               0                0               0
5.6078              0.0836294361     -179.671377       0.47628278    0.0595626984                0               0                0               0
5.6092              0.0836314447     -179.672735      0.476845347    0.0596137529                0               0                0               0
5.6106              0.0836356685     -179.674132      0.477412241    0.0596022699                0               0                0               0
5.612               0.0836421136     -179.675569      0.477983473    0.0595272987                0               0                0               0
5.6134              0.0836507865     -179.677045      0.478559053    0.0593879511                0               0                0               0
5.6148              0.0836616941     -179.678562      0.479138989    0.0591834001                0               0                0               0
5.6162              0.0836748437     -179.680119      0.479723289    0.0589128794                0               0                0               0
5.6176              0.0836902432     -179.681716       0.48031196    0.0585756833                0               0                0               0
5.619               0.0837079009     -179.683354      0.480905007    0.0581711656                0               0                0               0
5.6204              0.0837278253     -179.685033      0.481502437    0.0576987394                0               0                0               0
5.6218              0.0837500258     -179.686752      0.482104254    0.0571578763                0               0                0               0
5.6232               0.083774512     -179.688511       0.48271046    0.0565481065                0               0                0               0
5.6246              0.0838012941     -179.690311      0.483321058    0.0558690179                0               0                0               0
5.626               0.0838303827     -179.692151      0.483936051    0.0551202561                0               0                0               0
5.6274               0.083861789      -179.69403      0.484555438     0.054301524                0               0                0               0
5.6288              0.0838955248     -179.695948      0.485179219     0.053412582                0               0                0               0
5.6302              0.0839316022     -179.697905      0.485807395    0.0524532473                0               0                0               0
5.6316              0.0839700342       -179.6999      0.486439962    0.0514233945                0               0                0               0
5.633                0.084010834     -179.701932      0.487076918    0.0503229554                0               0                0               0
5.6344              0.0840540157     -179.704001       0.48771826    0.0491519192                0               0                0               0
5.6358              0.0840995937     -179.706106      0.488363983    0.0479103329                0               0                0               0
5.6372              0.0841475833     -179.708247      0.489014083    0.0465983017                0               0                0               0
5.6386              0.0841980002     -179.710421      0.489668554    0.0452159895                0               0                0               0
5.64                0.0842508608     -179.712628      0.490327389    0.0437636192                0               0                0               0
5.6414              0.0843061821     -179.714868      0.490990582    0.0422414739                0               0                0               0
5.6428              0.0843639821     -179.717139      0.491658124    0.0406498973                0               0                0               0
5.6442              0.0844242789     -179.719439      0.492330007    0.0389892946                0               0                0               0
5.6456              0.0844870919     -179.721767      0.493006221     0.037260134                0               0                0               0
5.647               0.0845524409     -179.724123      0.493686757    0.0354629471                0               0                0               0
5.6484              0.0846203464     -179.726505      0.494371605    0.0335983306                0               0                0               0
5.6498              0.0846908299      -179.72891      0.495060754    0.0316669473                0               0                0               0
5.6512              0.0847639136     -179.731338      0.495754192    0.0296695276                0               0                0               0
5.6526              0.0848396203     -179.733787      0.496451908     0.027606871                0               0                0               0
5.654               0.0849179739     -179.736256       0.49715389    0.0254798474                0               0                0               0
5.6554              0.0849989991     -179.738742      0.497860124     0.023289399                0               0                0               0
5.6568              0.0850827213     -179.741243      0.498570597    0.0210365417                0               0                0               0
5.6582              0.0851691671     -179.743759      0.499285297    0.0187223669                0               0                0               0
5.6596              0.0852583638     -179.746286       0.50000421    0.0163480435                0               0                0               0
5.661               0.0853503396     -179.748823      0.500727321    0.0139148193                0               0                0               0
5.6624              0.0854451239     -179.751368      0.501454617     0.011424023                0               0                0               0
5.6638              0.0855427471     -179.753918      0.502186083   0.00887706635                0               0                0               0
5.6652              0.0856432404     -179.756472      0.502921706   0.00627544552                0               0                0               0
5.6666              0.0857466362     -179.759027       0.50366147   0.00362074341                0               0                0               0
5.668               0.0858529682     -179.761581      0.504405361  0.000914631355                0               0                0               0
5.6694              0.0859622709     -179.764132      0.505153365  -0.00184112901                0               0                0               0
5.6708              0.0860745801     -179.766678      0.505905468   -0.0046446839                0               0                0               0
5.6722              0.0861899329     -179.769215      0.506661655  -0.00749408557                0               0                0               0
5.6736              0.0863083676     -179.771742      0.507421913   -0.0103872906                0               0                0               0
5.675               0.0864299237     -179.774256      0.508186227   -0.0133221582                0               0                0               0
5.6764               0.086554642     -179.776755      0.508954584   -0.0162964485                0               0                0               0
5.6778              0.0866825647     -179.779235      0.509726971   -0.0193078214                0               0                0               0
5.6792              0.0868137355     -179.781696      0.510503375   -0.0223538346                0               0                0               0
5.6806              0.0869481994     -179.784134      0.511283785   -0.0254319429                0               0                0               0
5.682               0.0870860029     -179.786546      0.512068187   -0.0285394965                0               0                0               0
5.6834              0.0872271941      -179.78893      0.512856572   -0.0316737404                0               0                0               0
5.6848              0.0873718226     -179.791284      0.513648928   -0.0348318135                0               0                0               0
5.6862              0.0875199397     -179.793605      0.514445247   -0.0380107476                0               0                0               0
5.6876              0.0876715983     -179.795891      0.515245518   -0.0412074674                0               0                0               0
5.689               0.0878268531     -179.798138      0.516049734   -0.0444187899                0               0                0               0
5.6904              0.0879857607     -179.800346      0.516857888   -0.0476414245                0               0                0               0
5.6918              0.0881483791      -179.80251      0.517669973   -0.0508719732                0               0                0               0
5.6932              0.0883147688     -179.804629      0.518485984   -0.0541069313                0               0                0               0
5.6946              0.0884849918     -179.806701      0.519305917   -0.0573426878                0               0                0               0
5.696               0.0886591123     -179.808724      0.520129769   -0.0605755266                0               0                0               0
5.6974              0.0888371966     -179.810694      0.520957539   -0.0638016284                0               0                0               0
5.6988              0.0890193132     -179.812611      0.521789226   -0.0670170715                0               0                0               0
5.7002              0.0892055327     -179.814472      0.522624832   -0.0702178349                0               0                0               0
5.7016              0.0893959281     -179.816275      0.523464358   -0.0733998001                0               0                0               0
5.703               0.0895905747     -179.818018      0.524307811   -0.0765587546                0               0                0               0
5.7044              0.0897895504       -179.8197      0.525155194   -0.0796903947                0               0                0               0
5.7058              0.0899929354      -179.82132      0.526006517   -0.0827903298                0               0                0               0
5.7072              0.0902008127     -179.822875      0.526861788   -0.0858540865                0               0                0               0
5.7086               0.090413268     -179.824365      0.527721019   -0.0888771135                0               0                0               0
5.71                0.0906303896     -179.825788      0.528584223   -0.0918547867                0               0                0               0
5.7114               0.090852269     -179.827144      0.529451415   -0.0947824157                0               0                0               0
5.7128              0.0910790004     -179.828432      0.530322613   -0.0976552495                0               0                0               0
5.7142              0.0913106813     -179.829651      0.531197837    -0.100468485                0               0                0               0
5.7156              0.0915474122     -179.830801      0.532077109    -0.103217272                0               0                0               0
5.717               0.0917892969     -179.831883      0.532960452    -0.105896725                0               0                0               0
5.7184              0.0920364429     -179.832895      0.533847895    -0.108501932                0               0                0               0
5.7198              0.0922889608      -179.83384      0.534739466     -0.11102796                0               0                0               0
5.7212              0.0925469652     -179.834717      0.535635196    -0.113469872                0               0                0               0
5.7226              0.0928105742     -179.835528      0.536535122    -0.115822733                0               0                0               0
5.724               0.0930799101     -179.836273      0.537439279    -0.118081626                0               0                0               0
5.7254              0.0933550988     -179.836955      0.538347708    -0.120241663                0               0                0               0
5.7268              0.0936362709     -179.837576      0.539260452       -0.122298                0               0                0               0
5.7282              0.0939235609     -179.838138      0.540177557    -0.124245851                0               0                0               0
5.7296              0.0942171079     -179.838643      0.541099071    -0.126080506                0               0                0               0
5.731               0.0945170558     -179.839096      0.542025045    -0.127797343                0               0                0               0
5.7324              0.0948235531     -179.839498      0.542955535    -0.129391852                0               0                0               0
5.7338              0.0951367534     -179.839855      0.543890599    -0.130859648                0               0                0               0
5.7352              0.0954568152      -179.84017      0.544830296    -0.132196495                0               0                0               0
5.7366              0.0957839028     -179.840449      0.545774691    -0.133398323                0               0                0               0
5.738               0.0961181857     -179.840697      0.546723849    -0.134461256                0               0                0               0
5.7394              0.0964598392     -179.840919      0.547677842    -0.135381626                0               0                0               0
5.7408              0.0968090445     -179.841121      0.548636741    -0.136156005                0               0                0               0
5.7422              0.0971659893     -179.841311      0.549600622    -0.136781226                0               0                0               0
5.7436              0.0975308673     -179.841495      0.550569563    -0.137254409                0               0                0               0
5.745               0.0979038793     -179.841682      0.551543646     -0.13757299                0               0                0               0
5.7464              0.0982852327     -179.841878      0.552522953    -0.137734749                0               0                0               0
5.7478              0.0986751422     -179.842095      0.553507571    -0.137737836                0               0                0               0
5.7492              0.0990738301     -179.842339      0.554497587    -0.137580806                0               0                0               0
5.7506              0.0994815264     -179.842622      0.555493094    -0.137262647                0               0                0               0
5.752               0.0998984694     -179.842953      0.556494181    -0.136782811                0               0                0               0
5.7534               0.100324906     -179.843343      0.557500944     -0.13614125                0               0                0               0
5.7548               0.100761091     -179.843804      0.558513477    -0.135338446                0               0                0               0
5.7562               0.101207289     -179.844348      0.559531876    -0.134375448                0               0                0               0
5.7576               0.101663775     -179.844986      0.560556237    -0.133253903                0               0                0               0
5.759                0.102130834     -179.845732      0.561586657    -0.131976094                0               0                0               0
5.7604               0.102608759     -179.846599      0.562623232    -0.130544973                0               0                0               0
5.7618               0.103097858     -179.847599      0.563666057    -0.128964195                0               0                0               0
5.7632               0.103598447     -179.848748      0.564715226    -0.127238154                0               0                0               0
5.7646               0.104110856      -179.85006       0.56577083    -0.125372018                0               0                0               0
5.766                0.104635427     -179.851548      0.566832957    -0.123371757                0               0                0               0
5.7674               0.105172516     -179.853228      0.567901692    -0.121244182                0               0                0               0
5.7688               0.105722493     -179.855115      0.568977114    -0.118996968                0               0                0               0
5.7702               0.106285742     -179.857223      0.570059299     -0.11663869                0               0                0               0
5.7716               0.106862663     -179.859568      0.571148313    -0.114178842                0               0                0               0
5.773                0.107453674     -179.862165      0.572244217    -0.111627865                0               0                0               0
5.7744               0.108059207     -179.865027       0.57334706    -0.108997163                0               0                0               0
5.7758               0.108679716     -179.868171      0.574456883    -0.106299124                0               0                0               0