! TOUCHSTONE file generated by CST MICROWAVE STUDIO
! Date and time: Sun May 18 00:33:45 2025
! Project name: X波段窗片重构-标准输入.cst
! Parameters = {L=6; PIN=3100; a=20; b=10; blendraduis=2.85; d=5; s=4; ta=16.03; tb=10.61; trh=1.69; wr=11.49; wt=0.91}
! Header version: 2018
! Port assignment regex: !\s*Touchstone port\s*([0-9]+)\s*=\s*(CST MWS port|CST DS port)\s*([0-9]+|Zmin|Zmax)\s*\(\"(.*)\"\)(\s*mode\s*([0-9]+))?.*
! Touchstone port assignment:
! Touchstone port 1 = CST MWS port 1 ("")
! Touchstone port 2 = CST MWS port 2 ("")
! S-Parameters are not renormalized. Unphysical impedance of 0 will be written to the file.
# GHz S MA R 0
5.5                 0.0787063849     -179.493102      0.455454513    0.0330512846                0               0                0               0
5.5014              0.0784905427     -179.494204      0.455774655    0.0306334487                0               0                0               0
5.5028              0.0782775966      -179.49537      0.456098675    0.0283688593                0               0                0               0
5.5042              0.0780675053     -179.496601       0.45642659    0.0262538273                0               0                0               0
5.5056              0.0778602285       -179.4979      0.456758411    0.0242846571                0               0                0               0
5.507               0.0776557271     -179.499267      0.457094154    0.0224576475                0               0                0               0
5.5084              0.0774539625     -179.500703      0.457433831    0.0207690932                0               0                0               0
5.5098              0.0772548975      -179.50221      0.457777455    0.0192152853                0               0                0               0
5.5112              0.0770584954     -179.503788      0.458125039     0.017792513                0               0                0               0
5.5126              0.0768647205     -179.505438      0.458476596    0.0164970642                0               0                0               0
5.514               0.0766735381      -179.50716      0.458832138    0.0153252273                0               0                0               0
5.5154              0.0764849141     -179.508955      0.459191675    0.0142732918                0               0                0               0
5.5168              0.0762988154     -179.510823      0.459555221    0.0133375499                0               0                0               0
5.5182              0.0761152096     -179.512765      0.459922786    0.0125142973                0               0                0               0
5.5196              0.0759340653      -179.51478      0.460294381    0.0117998348                0               0                0               0
5.521               0.0757553515     -179.516868      0.460670017    0.0111904695                0               0                0               0
5.5224              0.0755790383     -179.519029      0.461049703    0.0106825158                0               0                0               0
5.5238              0.0754050964     -179.521263       0.46143345    0.0102722969                0               0                0               0
5.5252              0.0752334973      -179.52357      0.461821267   0.00995614585                0               0                0               0
5.5266              0.0750642131     -179.525948      0.462213164   0.00973040714                0               0                0               0
5.528               0.0748972168     -179.528398      0.462609149   0.00959143777                0               0                0               0
5.5294              0.0747324818     -179.530918      0.463009231   0.00953560864                0               0                0               0
5.5308              0.0745699824     -179.533508      0.463413418   0.00955930586                0               0                0               0
5.5322              0.0744096936     -179.536168      0.463821719   0.00965893212                0               0                0               0
5.5336              0.0742515909     -179.538895       0.46423414   0.00983090798                0               0                0               0
5.535               0.0740956506     -179.541689      0.464650689    0.0100716733                0               0                0               0
5.5364              0.0739418496     -179.544549      0.465071373    0.0103776885                0               0                0               0
5.5378              0.0737901652     -179.547473      0.465496199     0.010745436                0               0                0               0
5.5392              0.0736405756     -179.550461      0.465925172    0.0111714217                0               0                0               0
5.5406              0.0734930595     -179.553511      0.466358299     0.011652176                0               0                0               0
5.542               0.0733475962     -179.556621      0.466795585    0.0121842558                0               0                0               0
5.5434              0.0732041657      -179.55979      0.467237036    0.0127642453                0               0                0               0
5.5448              0.0730627483     -179.563016      0.467682656    0.0133887577                0               0                0               0
5.5462              0.0729233251     -179.566298      0.468132451    0.0140544367                0               0                0               0
5.5476              0.0727858776     -179.569633      0.468586423    0.0147579575                0               0                0               0
5.549               0.0726503882     -179.573021      0.469044578    0.0154960289                0               0                0               0
5.5504              0.0725168394     -179.576459      0.469506919    0.0162653939                0               0                0               0
5.5518              0.0723852144     -179.579945      0.469973449    0.0170628318                0               0                0               0
5.5532              0.0722554971     -179.583478      0.470444171    0.0178851593                0               0                0               0
5.5546              0.0721276718     -179.587055      0.470919088    0.0187292319                0               0                0               0
5.556               0.0720017233     -179.590674      0.471398202    0.0195919456                0               0                0               0
5.5574              0.0718776368     -179.594333      0.471881515     0.020470238                0               0                0               0
5.5588              0.0717553983      -179.59803      0.472369029    0.0213610897                0               0                0               0
5.5602              0.0716349941     -179.601763      0.472860746    0.0222615261                0               0                0               0
5.5616              0.0715164109     -179.605529      0.473356666    0.0231686185                0               0                0               0
5.563               0.0713996362     -179.609326      0.473856791    0.0240794856                0               0                0               0
5.5644              0.0712846578     -179.613152       0.47436112    0.0249912947                0               0                0               0
5.5658              0.0711714638     -179.617004      0.474869655    0.0259012635                0               0                0               0
5.5672              0.0710600432     -179.620881      0.475382395    0.0268066613                0               0                0               0
5.5686              0.0709503852     -179.624779      0.475899341      0.02770481                0               0                0               0
5.57                0.0708424794     -179.628695      0.476420491    0.0285930863                0               0                0               0
5.5714              0.0707363161     -179.632629      0.476945845    0.0294689222                0               0                0               0
5.5728              0.0706318858     -179.636576      0.477475401    0.0303298068                0               0                0               0
5.5742              0.0705291797     -179.640535      0.478009159    0.0311732877                0               0                0               0
5.5756              0.0704281893     -179.644503      0.478547118    0.0319969721                0               0                0               0
5.577               0.0703289066     -179.648477      0.479089275    0.0327985282                0               0                0               0
5.5784              0.0702313241     -179.652454      0.479635628    0.0335756864                0               0                0               0
5.5798              0.0701354347     -179.656433      0.480186176    0.0343262409                0               0                0               0
5.5812              0.0700412317      -179.66041      0.480740916    0.0350480505                0               0                0               0
5.5826              0.0699487088     -179.664382      0.481299846    0.0357390402                0               0                0               0
5.584               0.0698578604     -179.668348      0.481862962    0.0363972022                0               0                0               0
5.5854               0.069768681     -179.672304      0.482430263    0.0370205973                0               0                0               0
5.5868              0.0696811657     -179.676247      0.483001745    0.0376073559                0               0                0               0
5.5882              0.0695953101     -179.680176      0.483577406    0.0381556791                0               0                0               0
5.5896              0.0695111101     -179.684087      0.484157241    0.0386638403                0               0                0               0
5.591               0.0694285621     -179.687978      0.484741248    0.0391301856                0               0                0               0
5.5924              0.0693476629     -179.691845      0.485329424    0.0395531354                0               0                0               0
5.5938              0.0692684097     -179.695687      0.485921764    0.0399311853                0               0                0               0
5.5952              0.0691908003     -179.699501      0.486518265    0.0402629069                0               0                0               0
5.5966              0.0691148327     -179.703284      0.487118924    0.0405469494                0               0                0               0
5.598               0.0690405055     -179.707033      0.487723736    0.0407820396                0               0                0               0
5.5994              0.0689678176     -179.710746      0.488332699    0.0409669838                0               0                0               0
5.6008              0.0688967684      -179.71442      0.488945808     0.041100668                0               0                0               0
5.6022              0.0688273576     -179.718053       0.48956306    0.0411820589                0               0                0               0
5.6036              0.0687595857     -179.721642      0.490184451    0.0412102051                0               0                0               0
5.605               0.0686934531     -179.725184      0.490809978    0.0411842373                0               0                0               0
5.6064               0.068628961     -179.728678      0.491439637    0.0411033693                0               0                0               0
5.6078              0.0685661109      -179.73212      0.492073424    0.0409668987                0               0                0               0
5.6092              0.0685049048     -179.735508      0.492711336    0.0407742074                0               0                0               0
5.6106               0.068445345     -179.738841       0.49335337    0.0405247624                0               0                0               0
5.612               0.0683874344     -179.742115      0.493999523    0.0402181161                0               0                0               0
5.6134              0.0683311762     -179.745328      0.494649792    0.0398539068                0               0                0               0
5.6148              0.0682765742     -179.748478      0.495304175    0.0394318594                0               0                0               0
5.6162              0.0682236323     -179.751562      0.495962668    0.0389517856                0               0                0               0
5.6176              0.0681723553     -179.754579      0.496625269    0.0384135839                0               0                0               0
5.619                0.068122748     -179.757527      0.497291976    0.0378172405                0               0                0               0
5.6204               0.068074816     -179.760403      0.497962789     0.037162829                0               0                0               0
5.6218              0.0680285652     -179.763206      0.498637704    0.0364505107                0               0                0               0
5.6232              0.0679840019     -179.765932      0.499316721    0.0356805348                0               0                0               0
5.6246              0.0679411328     -179.768582       0.49999984    0.0348532382                0               0                0               0
5.626               0.0678999654     -179.771152      0.500687059    0.0339690453                0               0                0               0
5.6274              0.0678605072     -179.773641       0.50137838    0.0330284684                0               0                0               0
5.6288              0.0678227664     -179.776048      0.502073802    0.0320321069                0               0                0               0
5.6302              0.0677867518      -179.77837      0.502773326    0.0309806475                0               0                0               0
5.6316              0.0677524724     -179.780606      0.503476954    0.0298748632                0               0                0               0
5.633               0.0677199377     -179.782756      0.504184688    0.0287156137                0               0                0               0
5.6344               0.067689158     -179.784816       0.50489653    0.0275038439                0               0                0               0
5.6358              0.0676601436     -179.786787      0.505612484    0.0262405842                0               0                0               0
5.6372              0.0676329058     -179.788667      0.506332552    0.0249269492                0               0                0               0
5.6386              0.0676074559     -179.790455      0.507056741    0.0235641368                0               0                0               0
5.64                 0.067583806     -179.792149      0.507785053    0.0221534279                0               0                0               0
5.6414              0.0675619687     -179.793749      0.508517496    0.0206961849                0               0                0               0
5.6428               0.067541957     -179.795255      0.509254076    0.0191938507                0               0                0               0
5.6442              0.0675237845     -179.796665        0.5099948    0.0176479474                0               0                0               0
5.6456              0.0675074652     -179.797978      0.510739676    0.0160600754                0               0                0               0
5.647               0.0674930137     -179.799195      0.511488713    0.0144319115                0               0                0               0
5.6484              0.0674804453     -179.800315      0.512241921    0.0127652076                0               0                0               0
5.6498              0.0674697755     -179.801338      0.512999311    0.0110617889                0               0                0               0
5.6512              0.0674610206     -179.802263      0.513760894   0.00932355242                0               0                0               0
5.6526              0.0674541974      -179.80309      0.514526684   0.00755246465                0               0                0               0
5.654               0.0674493233      -179.80382      0.515296693   0.00575055995                0               0                0               0
5.6554              0.0674464162     -179.804452      0.516070937    0.0039199382                0               0                0               0
5.6568              0.0674454946     -179.804987      0.516849431   0.00206276254                0               0                0               0
5.6582              0.0674465776     -179.805426      0.517632193  0.000181256948                0               0                0               0
5.6596              0.0674496849     -179.805769      0.518419241  -0.00172229628                0               0                0               0
5.661               0.0674548368     -179.806016      0.519210594  -0.00364555927                0               0                0               0
5.6624              0.0674620543     -179.806169      0.520006272  -0.00558614137                0               0                0               0
5.6638               0.067471359     -179.806228      0.520806299  -0.00754160218                0               0                0               0
5.6652               0.067482773     -179.806194      0.521610696  -0.00950945466                0               0                0               0
5.6666              0.0674963193      -179.80607      0.522419489   -0.0114871684                0               0                0               0
5.668               0.0675120213     -179.805855      0.523232704   -0.0134721732                0               0                0               0
5.6694              0.0675299032     -179.805552      0.524050368   -0.0154618625                0               0                0               0
5.6708              0.0675499901     -179.805163       0.52487251   -0.0174535973                0               0                0               0
5.6722              0.0675723075     -179.804688      0.525699161     -0.01944471                0               0                0               0
5.6736              0.0675968817      -179.80413      0.526530352   -0.0214325084                0               0                0               0
5.675               0.0676237399     -179.803491      0.527366118   -0.0234142803                0               0                0               0
5.6764              0.0676529097     -179.802774      0.528206494   -0.0253872976                0               0                0               0
5.6778                0.06768442      -179.80198      0.529051516   -0.0273488213                0               0                0               0
5.6792              0.0677182999     -179.801112      0.529901223   -0.0292961057                0               0                0               0
5.6806              0.0677545797     -179.800173      0.530755656    -0.031226404                0               0                0               0
5.682               0.0677932905     -179.799165      0.531614856   -0.0331369729                0               0                0               0
5.6834               0.067834464     -179.798092      0.532478868   -0.0350250784                0               0                0               0
5.6848               0.067878133     -179.796957      0.533347736   -0.0368880009                0               0                0               0
5.6862              0.0679243311     -179.795762       0.53422151   -0.0387230412                0               0                0               0
5.6876              0.0679730927     -179.794511      0.535100238   -0.0405275259                0               0                0               0
5.689               0.0680244534     -179.793208      0.535983971   -0.0422988139                0               0                0               0
5.6904              0.0680784495     -179.791857      0.536872763   -0.0440343025                0               0                0               0
5.6918              0.0681351184      -179.79046      0.537766669   -0.0457314335                0               0                0               0
5.6932              0.0681944985     -179.789023      0.538665747   -0.0473876998                0               0                0               0
5.6946              0.0682566291     -179.787548      0.539570055   -0.0490006523                0               0                0               0
5.696               0.0683215509      -179.78604      0.540479655   -0.0505679068                0               0                0               0
5.6974              0.0683893053     -179.784504       0.54139461   -0.0520871506                0               0                0               0
5.6988              0.0684599351     -179.782944      0.542314986     -0.05355615                0               0                0               0
5.7002              0.0685334842     -179.781364      0.543240849   -0.0549727576                0               0                0               0
5.7016              0.0686099978     -179.779769      0.544172269   -0.0563349194                0               0                0               0
5.703                0.068689522     -179.778164      0.545109318   -0.0576406827                0               0                0               0
5.7044              0.0687721047     -179.776553      0.546052069   -0.0588882037                0               0                0               0
5.7058              0.0688577947     -179.774942      0.547000598   -0.0600757551                0               0                0               0
5.7072              0.0689466423     -179.773335      0.547954981   -0.0612017339                0               0                0               0
5.7086              0.0690386993     -179.771737        0.5489153   -0.0622646697                0               0                0               0
5.71                 0.069134019     -179.770155      0.549881635   -0.0632632321                0               0                0               0
5.7114              0.0692326561     -179.768592       0.55085407    -0.064196239                0               0                0               0
5.7128              0.0693346669     -179.767054       0.55183269   -0.0650626648                0               0                0               0
5.7142              0.0694401094     -179.765546      0.552817583    -0.065861648                0               0                0               0
5.7156              0.0695490433     -179.764074      0.553808838   -0.0665924991                0               0                0               0
5.717                 0.06966153     -179.762643      0.554806547   -0.0672547092                0               0                0               0
5.7184              0.0697776329     -179.761259      0.555810802   -0.0678479568                0               0                0               0
5.7198              0.0698974172     -179.759926      0.556821697   -0.0683721162                0               0                0               0
5.7212                0.07002095      -179.75865       0.55783933    -0.068827265                0               0                0               0
5.7226              0.0701483007     -179.757436      0.558863797   -0.0692136908                0               0                0               0
5.724               0.0702795407      -179.75629      0.559895199   -0.0695318991                0               0                0               0
5.7254              0.0704147438     -179.755216      0.560933635   -0.0697826195                0               0                0               0
5.7268              0.0705539861      -179.75422      0.561979208   -0.0699668125                0               0                0               0
5.7282              0.0706973461     -179.753307      0.563032021   -0.0700856753                0               0                0               0
5.7296              0.0708449051     -179.752481      0.564092178   -0.0701406481                0               0                0               0
5.731               0.0709967468     -179.751748      0.565159785   -0.0701334185                0               0                0               0
5.7324               0.071152958     -179.751112      0.566234947   -0.0700659266                0               0                0               0
5.7338              0.0713136283     -179.750577      0.567317771   -0.0699403691                0               0                0               0
5.7352              0.0714788506     -179.750148      0.568408365   -0.0697592024                0               0                0               0
5.7366              0.0716487208     -179.749829      0.569506835   -0.0695251453                0               0                0               0
5.738               0.0718233385     -179.749623       0.57061329   -0.0692411808                0               0                0               0
5.7394              0.0720028067     -179.749534      0.571727837   -0.0689105569                0               0                0               0
5.7408              0.0721872324     -179.749566      0.572850584   -0.0685367866                0               0                0               0
5.7422              0.0723767264     -179.749721      0.573981638   -0.0681236464                0               0                0               0
5.7436              0.0725714037     -179.750002      0.575121105   -0.0676751742                0               0                0               0
5.745               0.0727713841     -179.750412      0.576269091   -0.0671956653                0               0                0               0
5.7464              0.0729767915     -179.750951        0.5774257   -0.0666896676                0               0                0               0
5.7478              0.0731877551     -179.751623      0.578591036   -0.0661619747                0               0                0               0
5.7492              0.0734044092     -179.752428      0.579765198    -0.065617618                0               0                0               0
5.7506              0.0736268936     -179.753367      0.580948289   -0.0650618566                0               0                0               0
5.752                0.073855354      -179.75444      0.582140403   -0.0645001658                0               0                0               0
5.7534              0.0740899421     -179.755647      0.583341637   -0.0639382228                0               0                0               0
5.7548              0.0743308162     -179.756988      0.584552082   -0.0633818915                0               0                0               0
5.7562              0.0745781414     -179.758461      0.585771827    -0.062837204                0               0                0               0
5.7576              0.0748320902     -179.760064      0.587000957   -0.0623103405                0               0                0               0
5.759               0.0750928428     -179.761796      0.588239555   -0.0618076061                0               0                0               0
5.7604              0.0753605875     -179.763653      0.589487697   -0.0613354052                0               0                0               0
5.7618              0.0756355214     -179.765632      0.590745457   -0.0609002134                0               0                0               0
5.7632               0.075917851     -179.767729      0.592012903   -0.0605085464                0               0                0               0
5.7646              0.0762077924      -179.76994      0.593290099   -0.0601669253                0               0                0               0
5.766               0.0765055722     -179.772259      0.594577101   -0.0598818394                0               0                0               0
5.7674              0.0768114282      -179.77468      0.595873961   -0.0596597057                0               0                0               0
5.7688              0.0771256099     -179.777198      0.597180727   -0.0595068248                0               0                0               0
5.7702              0.0774483797     -179.779806      0.598497435   -0.0594293331                0               0                0               0
5.7716              0.0777800129     -179.782495       0.59982412   -0.0594331521                0               0                0               0
5.773               0.0781207996     -179.785258      0.601160806   -0.0595239337                0               0                0               0
5.7744              0.0784710449     -179.788087      0.602507511   -0.0597070014                0               0                0               0
5.7758              0.0788310703     -179.790973      0.603864245   -0.0599872892                0               0                0               0