! TOUCHSTONE file generated by CST MICROWAVE STUDIO
! Date and time: Sat May 17 23:11:19 2025
! Project name: X波段窗片重构-标准输入.cst
! Parameters = {L=6; PIN=3100; a=20; b=10; blendraduis=2.85; d=5; s=4; ta=16.03; tb=10.61; trh=1.69; wr=11.49; wt=0.87}
! Header version: 2018
! Port assignment regex: !\s*Touchstone port\s*([0-9]+)\s*=\s*(CST MWS port|CST DS port)\s*([0-9]+|Zmin|Zmax)\s*\(\"(.*)\"\)(\s*mode\s*([0-9]+))?.*
! Touchstone port assignment:
! Touchstone port 1 = CST MWS port 1 ("")
! Touchstone port 2 = CST MWS port 2 ("")
! S-Parameters are not renormalized. Unphysical impedance of 0 will be written to the file.
# GHz S MA R 0
5.5                 0.0867920571     -179.548224      0.445551232     0.037455533                0               0                0               0
5.5014              0.0866193972     -179.549562      0.445840517    0.0351288777                0               0                0               0
5.5028              0.0864495799     -179.550969      0.446133559    0.0329237676                0               0                0               0
5.5042              0.0862825766     -179.552443      0.446430358    0.0308367253                0               0                0               0
5.5056              0.0861183595     -179.553983      0.446730918    0.0288642947                0               0                0               0
5.507               0.0859569014     -179.555587       0.44703524    0.0270030421                0               0                0               0
5.5084              0.0857981759     -179.557252      0.447343325    0.0252495568                0               0                0               0
5.5098              0.0856421571     -179.558977      0.447655176    0.0236004521                0               0                0               0
5.5112              0.0854888201      -179.56076      0.447970794    0.0220523663                0               0                0               0
5.5126              0.0853381404       -179.5626      0.448290179    0.0206019633                0               0                0               0
5.514               0.0851900943     -179.564493      0.448613332    0.0192459338                0               0                0               0
5.5154              0.0850446585     -179.566439      0.448940254    0.0179809961                0               0                0               0
5.5168              0.0849018107     -179.568435      0.449270945     0.016803897                0               0                0               0
5.5182              0.0847615289      -179.57048      0.449605405    0.0157114124                0               0                0               0
5.5196               0.084623792     -179.572573      0.449943633    0.0147003487                0               0                0               0
5.521               0.0844885791      -179.57471      0.450285631    0.0137675432                0               0                0               0
5.5224              0.0843558703     -179.576891      0.450631396    0.0129098654                0               0                0               0
5.5238              0.0842256461     -179.579113      0.450980928    0.0121242175                0               0                0               0
5.5252              0.0840978876     -179.581375      0.451334226    0.0114075356                0               0                0               0
5.5266              0.0839725763     -179.583676      0.451691289    0.0107567902                0               0                0               0
5.528               0.0838496946     -179.586012      0.452052115    0.0101689876                0               0                0               0
5.5294               0.083729225     -179.588383      0.452416702   0.00964117015                0               0                0               0
5.5308              0.0836111511     -179.590787      0.452785049   0.00917041758                0               0                0               0
5.5322              0.0834954565     -179.593223      0.453157153   0.00875384763                0               0                0               0
5.5336              0.0833821256     -179.595687      0.453533013   0.00838861698                0               0                0               0
5.535               0.0832711433      -179.59818      0.453912626   0.00807192203                0               0                0               0
5.5364               0.083162495     -179.600698      0.454295988   0.00780099978                0               0                0               0
5.5378              0.0830561666     -179.603241      0.454683097   0.00757312865                0               0                0               0
5.5392              0.0829521444     -179.605807      0.455073951   0.00738562928                0               0                0               0
5.5406              0.0828504154     -179.608393      0.455468546   0.00723586535                0               0                0               0
5.542               0.0827509669     -179.610999      0.455866877    0.0071212444                0               0                0               0
5.5434              0.0826537867     -179.613623      0.456268943   0.00703921859                0               0                0               0
5.5448              0.0825588633     -179.616264      0.456674739   0.00698728552                0               0                0               0
5.5462              0.0824661855     -179.618918      0.457084261   0.00696298898                0               0                0               0
5.5476              0.0823757424     -179.621586      0.457497505   0.00696391971                0               0                0               0
5.549               0.0822875239     -179.624266      0.457914467   0.00698771617                0               0                0               0
5.5504              0.0822015202     -179.626955      0.458335143   0.00703206526                0               0                0               0
5.5518              0.0821177219     -179.629653      0.458759528   0.00709470308                0               0                0               0
5.5532              0.0820361203     -179.632357      0.459187617    0.0071734156                0               0                0               0
5.5546              0.0819567068     -179.635067      0.459619406   0.00726603939                0               0                0               0
5.556               0.0818794734     -179.637781       0.46005489    0.0073704623                0               0                0               0
5.5574              0.0818044127     -179.640497      0.460494064   0.00748462413                0               0                0               0
5.5588              0.0817315176     -179.643214      0.460936923    0.0076065173                0               0                0               0
5.5602              0.0816607813     -179.645931      0.461383461   0.00773418747                0               0                0               0
5.5616              0.0815921978     -179.648645      0.461833673   0.00786573419                0               0                0               0
5.563               0.0815257611     -179.651356      0.462287555   0.00799931149                0               0                0               0
5.5644               0.081461466     -179.654063        0.4627451   0.00813312846                0               0                0               0
5.5658              0.0813993076     -179.656763      0.463206303   0.00826544987                0               0                0               0
5.5672              0.0813392813     -179.659456      0.463671158   0.00839459667                0               0                0               0
5.5686              0.0812813831      -179.66214       0.46413966   0.00851894655                0               0                0               0
5.57                0.0812256094     -179.664815      0.464611804   0.00863693445                0               0                0               0
5.5714              0.0811719569     -179.667477      0.465087583   0.00874705305                0               0                0               0
5.5728              0.0811204229     -179.670127      0.465566992   0.00884785323                0               0                0               0
5.5742               0.081071005     -179.672764      0.466050025   0.00893794455                0               0                0               0
5.5756              0.0810237012     -179.675385      0.466536676   0.00901599565                0               0                0               0
5.577               0.0809785101      -179.67799       0.46702694   0.00908073464                0               0                0               0
5.5784              0.0809354306     -179.680577       0.46752081   0.00913094951                0               0                0               0
5.5798              0.0808944619     -179.683146      0.468018282   0.00916548845                0               0                0               0
5.5812              0.0808556039     -179.685695       0.46851935   0.00918326018                0               0                0               0
5.5826              0.0808188567     -179.688223      0.469024007   0.00918323428                0               0                0               0
5.584               0.0807842208     -179.690729      0.469532248   0.00916444142                0               0                0               0
5.5854              0.0807516974     -179.693213      0.470044069    0.0091259736                0               0                0               0
5.5868              0.0807212879     -179.695672      0.470559462   0.00906698439                0               0                0               0
5.5882               0.080692994     -179.698106      0.471078424   0.00898668909                0               0                0               0
5.5896              0.0806668182     -179.700515      0.471600949   0.00888436489                0               0                0               0
5.591               0.0806427632     -179.702897      0.472127031   0.00875935096                0               0                0               0
5.5924              0.0806208321     -179.705251      0.472656666   0.00861104859                0               0                0               0
5.5938              0.0806010284     -179.707577       0.47318985   0.00843892116                0               0                0               0
5.5952              0.0805833563     -179.709873      0.473726576   0.00824249422                0               0                0               0
5.5966              0.0805678201     -179.712139      0.474266841   0.00802135544                0               0                0               0
5.598               0.0805544249     -179.714374       0.47481064   0.00777515454                0               0                0               0
5.5994              0.0805431758     -179.716577       0.47535797   0.00750360321                0               0                0               0
5.6008              0.0805340787     -179.718748      0.475908826   0.00720647497                0               0                0               0
5.6022              0.0805271398     -179.720886      0.476463204   0.00688360497                0               0                0               0
5.6036              0.0805223658     -179.722991      0.477021102    0.0065348898                0               0                0               0
5.605               0.0805197638     -179.725061      0.477582515   0.00616028721                0               0                0               0
5.6064              0.0805193413     -179.727097      0.478147441    0.0057598158                0               0                0               0
5.6078              0.0805211065     -179.729097      0.478715878   0.00533355467                0               0                0               0
5.6092              0.0805250679     -179.731062      0.479287822   0.00488164303                0               0                0               0
5.6106              0.0805312344     -179.732991      0.479863272   0.00440427975                0               0                0               0
5.612               0.0805396154     -179.734883      0.480442225   0.00390172286                0               0                0               0
5.6134              0.0805502209     -179.736739      0.481024682     0.003374289                0               0                0               0
5.6148              0.0805630613     -179.738557      0.481610639   0.00282235284                0               0                0               0
5.6162              0.0805781474     -179.740339      0.482200098   0.00224634641                0               0                0               0
5.6176              0.0805954908     -179.742082      0.482793057   0.00164675843                0               0                0               0
5.619               0.0806151032     -179.743788      0.483389516   0.00102413351                0               0                0               0
5.6204               0.080636997     -179.745457      0.483989477  0.000379071355                0               0                0               0
5.6218              0.0806611851     -179.747088       0.48459294 -0.000287774092                0               0                0               0
5.6232              0.0806876809     -179.748681      0.485199906 -0.000975695613                0               0                0               0
5.6246              0.0807164984     -179.750236      0.485810378  -0.00168393369                0               0                0               0
5.626               0.0807476521     -179.751754      0.486424358  -0.00241167756                0               0                0               0
5.6274              0.0807811568     -179.753234      0.487041849  -0.00315806635                0               0                0               0
5.6288              0.0808170282     -179.754677      0.487662853  -0.00392219025                0               0                0               0
5.6302              0.0808552823     -179.756084      0.488287377  -0.00470309175                0               0                0               0
5.6316              0.0808959357     -179.757453      0.488915423    -0.005499767                0               0                0               0
5.633               0.0809390058     -179.758787      0.489546996  -0.00631116715                0               0                0               0
5.6344              0.0809845102     -179.760084      0.490182104  -0.00713619984                0               0                0               0
5.6358              0.0810324674     -179.761346      0.490820752  -0.00797373074                0               0                0               0
5.6372              0.0810828962     -179.762574      0.491462947  -0.00882258512                0               0                0               0
5.6386              0.0811358163     -179.763767      0.492108696  -0.00968154956                0               0                0               0
5.64                0.0811912479     -179.764927      0.492758009   -0.0105493737                0               0                0               0
5.6414              0.0812492117     -179.766054      0.493410894   -0.0114247721                0               0                0               0
5.6428              0.0813097292     -179.767149       0.49406736    -0.012306426                0               0                0               0
5.6442              0.0813728224     -179.768212      0.494727419   -0.0131929856                0               0                0               0
5.6456              0.0814385141     -179.769246      0.495391081    -0.014083072                0               0                0               0
5.647               0.0815068277      -179.77025      0.496058358   -0.0149752792                0               0                0               0
5.6484              0.0815777873     -179.771225      0.496729264   -0.0158681766                0               0                0               0
5.6498              0.0816514176     -179.772174       0.49740381   -0.0167603111                0               0                0               0
5.6512              0.0817277441     -179.773097      0.498082013   -0.0176502097                0               0                0               0
5.6526              0.0818067931     -179.773994      0.498763887    -0.018536382                0               0                0               0
5.654               0.0818885913     -179.774868      0.499449448   -0.0194173227                0               0                0               0
5.6554              0.0819731667      -179.77572      0.500138712   -0.0202915141                0               0                0               0
5.6568              0.0820605475      -179.77655      0.500831698   -0.0211574294                0               0                0               0
5.6582               0.082150763     -179.777362      0.501528424   -0.0220135352                0               0                0               0
5.6596              0.0822438432     -179.778155      0.502228909   -0.0228582941                0               0                0               0
5.661               0.0823398191     -179.778932      0.502933174   -0.0236901687                0               0                0               0
5.6624              0.0824387221     -179.779694       0.50364124   -0.0245076238                0               0                0               0
5.6638               0.082540585     -179.780444      0.504353129   -0.0253091301                0               0                0               0
5.6652               0.082645441     -179.781182      0.505068865   -0.0260931673                0               0                0               0
5.6666              0.0827533244      -179.78191      0.505788471    -0.026858228                0               0                0               0
5.668               0.0828642705     -179.782631      0.506511973   -0.0276028203                0               0                0               0
5.6694              0.0829783154     -179.783346      0.507239396   -0.0283254722                0               0                0               0
5.6708              0.0830954961     -179.784058      0.507970768   -0.0290247349                0               0                0               0
5.6722              0.0832158508     -179.784767      0.508706116   -0.0296991868                0               0                0               0
5.6736              0.0833394184     -179.785477       0.50944547   -0.0303474368                0               0                0               0
5.675               0.0834662392      -179.78619      0.510188859   -0.0309681288                0               0                0               0
5.6764              0.0835963542     -179.786908      0.510936314   -0.0315599457                0               0                0               0
5.6778              0.0837298057     -179.787632      0.511687868    -0.032121613                0               0                0               0
5.6792               0.083866637     -179.788365      0.512443552   -0.0326519032                0               0                0               0
5.6806              0.0840068927     -179.789111      0.513203401   -0.0331496403                0               0                0               0
5.682               0.0841506184     -179.789869      0.513967449   -0.0336137036                0               0                0               0
5.6834              0.0842978609     -179.790645      0.514735733   -0.0340430325                0               0                0               0
5.6848              0.0844486686     -179.791439      0.515508289   -0.0344366306                0               0                0               0
5.6862              0.0846030906     -179.792254      0.516285154   -0.0347935702                0               0                0               0
5.6876              0.0847611779     -179.793093      0.517066367   -0.0351129969                0               0                0               0
5.689               0.0849229823     -179.793957      0.517851968   -0.0353941341                0               0                0               0
5.6904              0.0850885575     -179.794851      0.518641996   -0.0356362876                0               0                0               0
5.6918              0.0852579583     -179.795776      0.519436494   -0.0358388499                0               0                0               0
5.6932              0.0854312411     -179.796734      0.520235502   -0.0360013051                0               0                0               0
5.6946               0.085608464     -179.797729      0.521039064   -0.0361232336                0               0                0               0
5.696               0.0857896863     -179.798762      0.521847223   -0.0362043162                0               0                0               0
5.6974              0.0859749692     -179.799837      0.522660024   -0.0362443391                0               0                0               0
5.6988              0.0861643757     -179.800956      0.523477511   -0.0362431981                0               0                0               0
5.7002              0.0863579702     -179.802122       0.52429973   -0.0362009033                0               0                0               0
5.7016              0.0865558192     -179.803336      0.525126727   -0.0361175835                0               0                0               0
5.703                0.086757991     -179.804602      0.525958549   -0.0359934903                0               0                0               0
5.7044              0.0869645557     -179.805921      0.526795244   -0.0358290025                0               0                0               0
5.7058              0.0871755856     -179.807297      0.527636858   -0.0356246301                0               0                0               0
5.7072               0.087391155     -179.808731      0.528483441   -0.0353810184                0               0                0               0
5.7086              0.0876113403     -179.810226      0.529335039   -0.0350989516                0               0                0               0
5.71                0.0878362201     -179.811784      0.530191703   -0.0347793568                0               0                0               0
5.7114              0.0880658756     -179.813407      0.531053479   -0.0344233069                0               0                0               0
5.7128              0.0883003902     -179.815097      0.531920418   -0.0340320242                0               0                0               0
5.7142              0.0885398497     -179.816856      0.532792568   -0.0336068831                0               0                0               0
5.7156              0.0887843427     -179.818686      0.533669977   -0.0331494128                0               0                0               0
5.717               0.0890339606     -179.820589      0.534552694   -0.0326612998                0               0                0               0
5.7184              0.0892887973     -179.822566      0.535440766   -0.0321443895                0               0                0               0
5.7198                0.08954895     -179.824618      0.536334241   -0.0316006879                0               0                0               0
5.7212              0.0898145188     -179.826747      0.537233167   -0.0310323631                0               0                0               0
5.7226              0.0900856069     -179.828955      0.538137588   -0.0304417456                0               0                0               0
5.724               0.0903623211     -179.831241      0.539047551   -0.0298313285                0               0                0               0
5.7254              0.0906447715     -179.833607        0.5399631   -0.0292037675                0               0                0               0
5.7268              0.0909330719     -179.836053      0.540884278   -0.0285618796                0               0                0               0
5.7282              0.0912273399      -179.83858      0.541811126   -0.0279086415                0               0                0               0
5.7296              0.0915276971     -179.841187      0.542743686    -0.027247188                0               0                0               0
5.731               0.0918342694     -179.843875      0.543681995   -0.0265808082                0               0                0               0
5.7324              0.0921471869     -179.846643      0.544626091   -0.0259129421                0               0                0               0
5.7338              0.0924665843     -179.849491      0.545576009   -0.0252471762                0               0                0               0
5.7352              0.0927926011     -179.852418      0.546531782   -0.0245872377                0               0                0               0
5.7366               0.093125382     -179.855422      0.547493439   -0.0239369881                0               0                0               0
5.738               0.0934650768     -179.858502      0.548461009   -0.0233004162                0               0                0               0
5.7394               0.093811841     -179.861656      0.549434516   -0.0226816289                0               0                0               0
5.7408              0.0941658358     -179.864882      0.550413981    -0.022084842                0               0                0               0
5.7422              0.0945272286     -179.868177      0.551399425   -0.0215143693                0               0                0               0
5.7436              0.0948961932      -179.87154       0.55239086   -0.0209746105                0               0                0               0
5.745               0.0952729103     -179.874965      0.553388299   -0.0204700378                0               0                0               0
5.7464              0.0956575678     -179.878451      0.554391749   -0.0200051809                0               0                0               0
5.7478              0.0960503609     -179.881992      0.555401212   -0.0195846112                0               0                0               0
5.7492              0.0964514928     -179.885585      0.556416686   -0.0192129234                0               0                0               0
5.7506              0.0968611754     -179.889225      0.557438165   -0.0188947168                0               0                0               0
5.752               0.0972796289     -179.892907      0.558465637   -0.0186345738                0               0                0               0
5.7534              0.0977070834     -179.896625      0.559499084   -0.0184370373                0               0                0               0
5.7548              0.0981437784     -179.900373      0.560538485   -0.0183065864                0               0                0               0
5.7562               0.098589964     -179.904146      0.561583809   -0.0182476102                0               0                0               0
5.7576              0.0990459014     -179.907935      0.562635022   -0.0182643792                0               0                0               0
5.759               0.0995118633     -179.911735      0.563692082   -0.0183610157                0               0                0               0
5.7604              0.0999881348     -179.915538      0.564754939   -0.0185414615                0               0                0               0
5.7618               0.100475014     -179.919336      0.565823539   -0.0188094442                0               0                0               0
5.7632               0.100972813     -179.923121      0.566897818   -0.0191684413                0               0                0               0
5.7646               0.101481858     -179.926885      0.567977704   -0.0196216419                0               0                0               0
5.766                0.102002491     -179.930619      0.569063119   -0.0201719074                0               0                0               0
5.7674               0.102535071     -179.934314      0.570153974   -0.0208217293                0               0                0               0
5.7688               0.103079974     -179.937961      0.571250174   -0.0215731855                0               0                0               0
5.7702               0.103637594     -179.941551      0.572351613   -0.0224278953                0               0                0               0
5.7716               0.104208346     -179.945076      0.573458177   -0.0233869716                0               0                0               0
5.773                0.104792664     -179.948525      0.574569742   -0.0244509727                0               0                0               0
5.7744               0.105391006      -179.95189      0.575686175   -0.0256198518                0               0                0               0
5.7758               0.106003853     -179.955161      0.576807333   -0.0268929059                0               0                0               0