! TOUCHSTONE file generated by CST MICROWAVE STUDIO
! Date and time: Sat May 17 20:08:06 2025
! Project name: X波段窗片重构-标准输入.cst
! Parameters = {L=6; PIN=3100; a=20; b=10; blendraduis=2.85; d=5; s=4; ta=16.03; tb=10.61; trh=1.69; wr=10.65; wt=0.91}
! Header version: 2018
! Port assignment regex: !\s*Touchstone port\s*([0-9]+)\s*=\s*(CST MWS port|CST DS port)\s*([0-9]+|Zmin|Zmax)\s*\(\"(.*)\"\)(\s*mode\s*([0-9]+))?.*
! Touchstone port assignment:
! Touchstone port 1 = CST MWS port 1 ("")
! Touchstone port 2 = CST MWS port 2 ("")
! S-Parameters are not renormalized. Unphysical impedance of 0 will be written to the file.
# GHz S MA R 0
5.5                 0.0423135392     -1.11133151      0.333127231    0.0655586195                0               0                0               0
5.5014              0.0425111532     -1.11422444      0.333463061    0.0678236044                0               0                0               0
5.5028              0.0427104435     -1.11719043      0.333798948    0.0700705145                0               0                0               0
5.5042              0.0429114322     -1.12022894      0.334134876    0.0722992258                0               0                0               0
5.5056              0.0431141419     -1.12333942      0.334470825    0.0745096272                0               0                0               0
5.507               0.0433185955     -1.12652132      0.334806778    0.0767016207                0               0                0               0
5.5084              0.0435248163      -1.1297741      0.335142717    0.0788751222                0               0                0               0
5.5098              0.0437328281     -1.13309723      0.335478622    0.0810300614                0               0                0               0
5.5112              0.0439426553     -1.13649016      0.335814474    0.0831663821                0               0                0               0
5.5126              0.0441543225     -1.13995237      0.336150252     0.085284043                0               0                0               0
5.514               0.0443678548     -1.14348332      0.336485937    0.0873830175                0               0                0               0
5.5154               0.044583278      -1.1470825      0.336821506    0.0894632946                0               0                0               0
5.5168              0.0448006182     -1.15074938       0.33715694    0.0915248787                0               0                0               0
5.5182              0.0450199021     -1.15448345      0.337492216    0.0935677904                0               0                0               0
5.5196              0.0452411567      -1.1582842      0.337827311    0.0955920667                0               0                0               0
5.521               0.0454644099     -1.16215112      0.338162203    0.0975977615                0               0                0               0
5.5224              0.0456896899     -1.16608372      0.338496867    0.0995849457                0               0                0               0
5.5238              0.0459170255      -1.1700815      0.338831281     0.101553708                0               0                0               0
5.5252              0.0461464459     -1.17414397       0.33916542     0.103504154                0               0                0               0
5.5266              0.0463779813     -1.17827066      0.339499258     0.105436411                0               0                0               0
5.528               0.0466116621      -1.1824611       0.33983277      0.10735062                0               0                0               0
5.5294              0.0468475194     -1.18671481      0.340165929     0.109246945                0               0                0               0
5.5308              0.0470855852     -1.19103135      0.340498708     0.111125568                0               0                0               0
5.5322              0.0473258917     -1.19541027      0.340831081     0.112986693                0               0                0               0
5.5336              0.0475684721     -1.19985113      0.341163018     0.114830541                0               0                0               0
5.535               0.0478133602      -1.2043535      0.341494491     0.116657357                0               0                0               0
5.5364              0.0480605903     -1.20891696      0.341825471     0.118467407                0               0                0               0
5.5378              0.0483101978     -1.21354111      0.342155927     0.120260976                0               0                0               0
5.5392              0.0485622184     -1.21822555      0.342485829     0.122038376                0               0                0               0
5.5406              0.0488166889      -1.2229699      0.342815144     0.123799937                0               0                0               0
5.542               0.0490736465     -1.22777378      0.343143841     0.125546016                0               0                0               0
5.5434              0.0493331297     -1.23263683      0.343471886     0.127276991                0               0                0               0
5.5448              0.0495951772     -1.23755871      0.343799246     0.128993266                0               0                0               0
5.5462              0.0498598291     -1.24253909      0.344125886     0.130695269                0               0                0               0
5.5476               0.050127126     -1.24757764      0.344451771     0.132383454                0               0                0               0
5.549               0.0503971094     -1.25267407      0.344776864     0.134058299                0               0                0               0
5.5504              0.0506698218     -1.25782809      0.345101128      0.13572031                0               0                0               0
5.5518              0.0509453067     -1.26303942      0.345424526      0.13737002                0               0                0               0
5.5532              0.0512236084     -1.26830783      0.345747018     0.139007988                0               0                0               0
5.5546              0.0515047721     -1.27363306      0.346068564     0.140634802                0               0                0               0
5.556               0.0517888442     -1.27901492      0.346389125     0.142251078                0               0                0               0
5.5574               0.052075872     -1.28445319      0.346708657     0.143857462                0               0                0               0
5.5588               0.052365904     -1.28994771       0.34702712     0.145454629                0               0                0               0
5.5602              0.0526589896     -1.29549832      0.347344468     0.147043285                0               0                0               0
5.5616              0.0529551794     -1.30110488      0.347660657     0.148624166                0               0                0               0
5.563               0.0532545252     -1.30676729      0.347975641     0.150198041                0               0                0               0
5.5644              0.0535570799     -1.31248546      0.348289374     0.151765709                0               0                0               0
5.5658              0.0538628976     -1.31825932      0.348601808     0.153328006                0               0                0               0
5.5672              0.0541720338     -1.32408885      0.348912892     0.154885797                0               0                0               0
5.5686              0.0544845451     -1.32997402      0.349222577     0.156439984                0               0                0               0
5.57                0.0548004895     -1.33591486      0.349530812     0.157991505                0               0                0               0
5.5714              0.0551199264     -1.34191142      0.349837542     0.159541331                0               0                0               0
5.5728              0.0554429166     -1.34796375      0.350142715     0.161090472                0               0                0               0
5.5742              0.0557695222     -1.35407198      0.350446274     0.162639973                0               0                0               0
5.5756              0.0560998069     -1.36023624      0.350748163      0.16419092                0               0                0               0
5.577                0.056433836     -1.36645669      0.351048324     0.165744437                0               0                0               0
5.5784              0.0567716763     -1.37273354      0.351346696     0.167301685                0               0                0               0
5.5798               0.057113396     -1.37906703      0.351643218     0.168863871                0               0                0               0
5.5812              0.0574590655     -1.38545743      0.351937828     0.170432238                0               0                0               0
5.5826              0.0578087564     -1.39190505      0.352230461     0.172008077                0               0                0               0
5.584               0.0581625423     -1.39841024      0.352521051     0.173592717                0               0                0               0
5.5854              0.0585204986      -1.4049734       0.35280953     0.175187535                0               0                0               0
5.5868              0.0588827027     -1.41159495       0.35309583     0.176793953                0               0                0               0
5.5882              0.0592492338     -1.41827537      0.353379877     0.178413439                0               0                0               0
5.5896              0.0596201731     -1.42501518      0.353661601     0.180047508                0               0                0               0
5.591               0.0599956039     -1.43181495      0.353940925     0.181697725                0               0                0               0
5.5924              0.0603756117     -1.43867528      0.354217772     0.183365703                0               0                0               0
5.5938              0.0607602842     -1.44559684      0.354492064     0.185053109                0               0                0               0
5.5952              0.0611497113     -1.45258034      0.354763719     0.186761658                0               0                0               0
5.5966              0.0615439852     -1.45962655      0.355032654     0.188493123                0               0                0               0
5.598               0.0619432007     -1.46673629      0.355298783     0.190249329                0               0                0               0
5.5994              0.0623474549     -1.47391042      0.355562019     0.192032159                0               0                0               0
5.6008              0.0627568478     -1.48114989      0.355822272     0.193843552                0               0                0               0
5.6022              0.0631714817     -1.48845568      0.356079448     0.195685507                0               0                0               0
5.6036              0.0635914619     -1.49582885      0.356333452     0.197560086                0               0                0               0
5.605               0.0640168965     -1.50327052      0.356584187      0.19946941                0               0                0               0
5.6064              0.0644478966     -1.51078186      0.356831552     0.201415666                0               0                0               0
5.6078              0.0648845761     -1.51836414      0.357075443     0.203401108                0               0                0               0
5.6092              0.0653270525     -1.52601868      0.357315754     0.205428054                0               0                0               0
5.6106              0.0657754463     -1.53374687      0.357552375     0.207498897                0               0                0               0
5.612               0.0662298812     -1.54155017      0.357785194     0.209616098                0               0                0               0
5.6134              0.0666904849     -1.54943014      0.358014095     0.211782193                0               0                0               0
5.6148              0.0671573883     -1.55738841      0.358238958     0.213999795                0               0                0               0
5.6162              0.0676307262     -1.56542667      0.358459662     0.216271596                0               0                0               0
5.6176              0.0681106373     -1.57354674       0.35867608     0.218600367                0               0                0               0
5.619               0.0685972643     -1.58175049      0.358888081     0.220988966                0               0                0               0
5.6204              0.0690907541      -1.5900399      0.359095531     0.223440333                0               0                0               0
5.6218               0.069591258     -1.59841703      0.359298294     0.225957502                0               0                0               0
5.6232              0.0700989317     -1.60688406      0.359496225     0.228543598                0               0                0               0
5.6246              0.0706139356     -1.61544324       0.35968918      0.23120184                0               0                0               0
5.626               0.0711364348     -1.62409696      0.359877006     0.233935548                0               0                0               0
5.6274              0.0716665996     -1.63284768      0.360059547     0.236748144                0               0                0               0
5.6288              0.0722046054       -1.641698      0.360236644     0.239643157                0               0                0               0
5.6302               0.072750633     -1.65065062       0.36040813     0.242624227                0               0                0               0
5.6316               0.073304869     -1.65970837      0.360573833     0.245695109                0               0                0               0
5.633               0.0738675055     -1.66887418      0.360733579     0.248859675                0               0                0               0
5.6344              0.0744387409     -1.67815114      0.360887183     0.252121926                0               0                0               0
5.6358              0.0750187799     -1.68754243      0.361034459     0.255485988                0               0                0               0
5.6372              0.0756078337     -1.69705141       0.36117521     0.258956124                0               0                0               0
5.6386              0.0762061202     -1.70668155      0.361309237     0.262536738                0               0                0               0
5.64                0.0768138647     -1.71643647      0.361436332     0.266232379                0               0                0               0
5.6414              0.0774312994     -1.72631995       0.36155628     0.270047753                0               0                0               0
5.6428              0.0780586648     -1.73633592      0.361668859     0.273987723                0               0                0               0
5.6442              0.0786962088     -1.74648847      0.361773838     0.278057321                0               0                0               0
5.6456              0.0793441881     -1.75678185      0.361870982     0.282261755                0               0                0               0
5.647               0.0800028678      -1.7672205      0.361960043     0.286606418                0               0                0               0
5.6484              0.0806725222     -1.77780903      0.362040767     0.291096895                0               0                0               0
5.6498              0.0813534351     -1.78855222      0.362112891     0.295738977                0               0                0               0
5.6512                 0.0820459     -1.79945508       0.36217614     0.300538665                0               0                0               0
5.6526              0.0827502209     -1.81052277      0.362230233     0.305502187                0               0                0               0
5.654               0.0834667123      -1.8217607      0.362274875     0.310636008                0               0                0               0
5.6554              0.0841957002     -1.83317447      0.362309763     0.315946842                0               0                0               0
5.6568              0.0849375221     -1.84476991      0.362334581     0.321441665                0               0                0               0
5.6582              0.0856925278     -1.85655308      0.362349001     0.327127734                0               0                0               0
5.6596              0.0864610801     -1.86853028      0.362352683     0.333012596                0               0                0               0
5.661               0.0872435551     -1.88070807      0.362345275     0.339104114                0               0                0               0
5.6624              0.0880403429     -1.89309324      0.362326411     0.345410475                0               0                0               0
5.6638              0.0888518483     -1.90569288      0.362295708     0.351940219                0               0                0               0
5.6652              0.0896784915     -1.91851434      0.362252772     0.358702255                0               0                0               0
5.6666              0.0905207091     -1.93156528      0.362197191     0.365705886                0               0                0               0
5.668               0.0913789541     -1.94485365      0.362128537     0.372960831                0               0                0               0
5.6694              0.0922536978     -1.95838772      0.362046364     0.380477257                0               0                0               0
5.6708              0.0931454298     -1.97217609      0.361950209     0.388265803                0               0                0               0
5.6722              0.0940546593      -1.9862277       0.36183959     0.396337613                0               0                0               0
5.6736               0.094981916     -2.00055185      0.361714002     0.404704372                0               0                0               0
5.675               0.0959277514     -2.01515822      0.361572922     0.413378338                0               0                0               0
5.6764              0.0968927394     -2.03005687      0.361415804     0.422372386                0               0                0               0
5.6778               0.097877478     -2.04525828      0.361242078      0.43170005                0               0                0               0
5.6792              0.0988825902     -2.06077335      0.361051148     0.441375567                0               0                0               0
5.6806              0.0999087256     -2.07661343      0.360842395     0.451413934                0               0                0               0
5.682                0.100956562     -2.09279033      0.360615169     0.461830956                0               0                0               0
5.6834               0.102026805     -2.10931637      0.360368794     0.472643312                0               0                0               0
5.6848               0.103120193     -2.12620436      0.360102562     0.483868617                0               0                0               0
5.6862               0.104237497     -2.14346766      0.359815732     0.495525498                0               0                0               0
5.6876               0.105379522     -2.16112019       0.35950753     0.507633666                0               0                0               0
5.689                0.106547109     -2.17917647      0.359177145     0.520214007                0               0                0               0
5.6904               0.107741139     -2.19765165      0.358823727     0.533288672                0               0                0               0
5.6918               0.108962532     -2.21656152      0.358446389     0.546881182                0               0                0               0
5.6932               0.110212253     -2.23592259      0.358044197     0.561016536                0               0                0               0
5.6946               0.111491312     -2.25575207      0.357616173      0.57572134                0               0                0               0
5.696                0.112800768     -2.27606795      0.357161291     0.591023938                0               0                0               0
5.6974               0.114141732     -2.29688904      0.356678474     0.606954561                0               0                0               0
5.6988               0.115515367       -2.318235       0.35616659     0.623545491                0               0                0               0
5.7002               0.116922898     -2.34012641      0.355624451     0.640831246                0               0                0               0
5.7016               0.118365609      -2.3625848      0.355050804     0.658848771                0               0                0               0
5.703                0.119844851     -2.38563271      0.354444335     0.677637667                0               0                0               0
5.7044               0.121362045     -2.40929378      0.353803657      0.69724043                0               0                0               0
5.7058               0.122918686     -2.43359279       0.35312731     0.717702724                0               0                0               0
5.7072               0.124516348     -2.45855573      0.352413756      0.73907368                0               0                0               0
5.7086               0.126156693      -2.4842099      0.351661371     0.761406231                0               0                0               0
5.71                  0.12784147     -2.51058397      0.350868443     0.784757486                0               0                0               0
5.7114               0.129572528     -2.53770809      0.350033162     0.809189143                0               0                0               0
5.7128               0.131351817     -2.56561397      0.349153614     0.834767955                0               0                0               0
5.7142               0.133181401     -2.59433503      0.348227778     0.861566249                0               0                0               0
5.7156               0.135063462     -2.62390643      0.347253512      0.88966251                0               0                0               0
5.717                 0.13700031     -2.65436532      0.346228549     0.919142037                0               0                0               0
5.7184               0.138994394     -2.68575085      0.345150485     0.950097681                0               0                0               0
5.7198               0.141048308     -2.71810444       0.34401677     0.982630676                0               0                0               0
5.7212               0.143164809     -2.75146986      0.342824697      1.01685159                0               0                0               0
5.7226               0.145346824     -2.78589344      0.341571389      1.05288137                0               0                0               0
5.724                0.147597465     -2.82142428      0.340253789       1.0908526                0               0                0               0
5.7254               0.149920045     -2.85811447       0.33886864      1.13091084                0               0                0               0
5.7268               0.152318094     -2.89601931      0.337412475      1.17321621                0               0                0               0
5.7282               0.154795376     -2.93519759      0.335881596      1.21794523                0               0                0               0
5.7296                0.15735591     -2.97571188      0.334272056      1.26529288                0               0                0               0
5.731                 0.16000399     -3.01762884       0.33257964      1.31547497                0               0                0               0
5.7324               0.162744213      -3.0610196      0.330799839      1.36873093                0               0                0               0
5.7338               0.165581502     -3.10596014      0.328927828        1.425327                0               0                0               0
5.7352               0.168521136     -3.15253173      0.326958435      1.48555994                0               0                0               0
5.7366               0.171568785     -3.20082142      0.324886113      1.54976141                0               0                0               0
5.738                0.174730546     -3.25092259      0.322704905      1.61830302                0               0                0               0
5.7394               0.178012981     -3.30293553      0.320408405      1.69160232                0               0                0               0
5.7408               0.181423166     -3.35696816      0.317989718      1.77012988                0               0                0               0
5.7422               0.184968742     -3.41313675      0.315441412      1.85441765                0               0                0               0
5.7436                0.18865797      -3.4715668       0.31275547      1.94506894                0               0                0               0
5.745                0.192499795       -3.532394      0.309923227      2.04277034                0               0                0               0
5.7464               0.196503921     -3.59576529      0.306935309      2.14830612                0               0                0               0
5.7478               0.200680891     -3.66184008      0.303781561       2.2625756                0               0                0               0
5.7492               0.205042182     -3.73079171      0.300450968      2.38661425                0               0                0               0
5.7506               0.209600306      -3.8028089      0.296931563      2.52161963                0               0                0               0
5.752                0.214368932     -3.87809768      0.293210328      2.66898321                0               0                0               0
5.7534               0.219363023     -3.95688333      0.289273085      2.83032996                0               0                0               0
5.7548               0.224598992     -4.03941281      0.285104365      3.00756779                0               0                0               0
5.7562                0.23009488     -4.12595741      0.280687273      3.20294982                0               0                0               0
5.7576               0.235870565     -4.21681589      0.276003332      3.41915352                0               0                0               0
5.759                0.241947999     -4.31231806      0.271032311      3.65938227                0               0                0               0
5.7604               0.248351487       -4.412829      0.265752032      3.92749681                0               0                0               0
5.7618               0.255108006     -4.51875389       0.26013817      4.22818746                0               0                0               0
5.7632               0.262247587     -4.63054374      0.254164026      4.56720228                0               0                0               0
5.7646               0.269803754     -4.74870207      0.247800302      4.95165314                0               0                0               0
5.766                0.277814046     -4.87379281      0.241014868      5.39043239                0               0                0               0
5.7674               0.286320637     -5.00644967       0.23377256      5.89478834                0               0                0               0
5.7688               0.295371066      -5.1473873      0.226035027      6.47913396                0               0                0               0
5.7702                0.30501912      -5.2974146       0.21776071      7.16220419                0               0                0               0
5.7716               0.315325887     -5.45745084      0.208905046      7.96874619                0               0                0               0
5.773                0.326361033     -5.62854506      0.199421127      8.93204367                0               0                0               0
5.7744               0.338204357     -5.81189981      0.189261165      10.0977808                0               0                0               0
5.7758               0.350947693      -6.0089002      0.178379471      11.5301167                0               0                0               0