! TOUCHSTONE file generated by CST MICROWAVE STUDIO
! Date and time: Sat May 17 23:11:19 2025
! Project name: X波段窗片重构-标准输入.cst
! Parameters = {L=6; PIN=3100; a=20; b=10; blendraduis=2.85; d=5; s=4; ta=16.03; tb=10.61; trh=1.69; wr=11.49; wt=0.91}
! Header version: 2018
! Port assignment regex: !\s*Touchstone port\s*([0-9]+)\s*=\s*(CST MWS port|CST DS port)\s*([0-9]+|Zmin|Zmax)\s*\(\"(.*)\"\)(\s*mode\s*([0-9]+))?.*
! Touchstone port assignment:
! Touchstone port 1 = CST MWS port 1 ("")
! Touchstone port 2 = CST MWS port 2 ("")
! S-Parameters are not renormalized. Unphysical impedance of 0 will be written to the file.
# GHz S MA R 0
5.5                  0.078706385     -179.493102      0.455454513    0.0330512846                0               0                0               0
5.5014              0.0784907595     -179.494412      0.455774614     0.030686571                0               0                0               0
5.5028              0.0782780102     -179.495771      0.456098602    0.0284742531                0               0                0               0
5.5042              0.0780680969     -179.497181      0.456426493    0.0264106281                0               0                0               0
5.5056              0.0778609805     -179.498644        0.4567583    0.0244919867                0               0                0               0
5.507               0.0776566229     -179.500162      0.457094036    0.0227146145                0               0                0               0
5.5084              0.0774549867     -179.501735      0.457433715    0.0210747933                0               0                0               0
5.5098              0.0772560356     -179.503365      0.457777349    0.0195688019                0               0                0               0
5.5112              0.0770597338     -179.505053      0.458124952    0.0181929171                0               0                0               0
5.5126              0.0768660468       -179.5068      0.458476534    0.0169434156                0               0                0               0
5.514               0.0766749405     -179.508607      0.458832109    0.0158165741                0               0                0               0
5.5154              0.0764863819     -179.510475      0.459191688    0.0148086715                0               0                0               0
5.5168              0.0763003386     -179.512404      0.459555282    0.0139159895                0               0                0               0
5.5182              0.0761167791     -179.514395      0.459922902    0.0131348138                0               0                0               0
5.5196              0.0759356725     -179.516449      0.460294559    0.0124614359                0               0                0               0
5.521               0.0757569888     -179.518564      0.460670263    0.0118921534                0               0                0               0
5.5224              0.0755806987     -179.520742      0.461050025    0.0114232724                0               0                0               0
5.5238              0.0754067736     -179.522983      0.461433854    0.0110511076                0               0                0               0
5.5252              0.0752351856     -179.525287       0.46182176    0.0107719846                0               0                0               0
5.5266              0.0750659073     -179.527652      0.462213751    0.0105822405                0               0                0               0
5.528               0.0748989124      -179.53008      0.462609836    0.0104782255                0               0                0               0
5.5294              0.0747341749      -179.53257      0.463010024    0.0104563042                0               0                0               0
5.5308              0.0745716696     -179.535121      0.463414323    0.0105128569                0               0                0               0
5.5322              0.0744113719     -179.537732       0.46382274     0.010644281                0               0                0               0
5.5336              0.0742532579     -179.540404      0.464235283    0.0108469922                0               0                0               0
5.535               0.0740973042     -179.543135      0.464651959     0.011117426                0               0                0               0
5.5364              0.0739434883     -179.545924      0.465072774    0.0114520391                0               0                0               0
5.5378              0.0737917878     -179.548771      0.465497736    0.0118473105                0               0                0               0
5.5392              0.0736421814     -179.551675       0.46592685    0.0122997433                0               0                0               0
5.5406              0.0734946481     -179.554634      0.466360122    0.0128058658                0               0                0               0
5.542               0.0733491675     -179.557648      0.466797557    0.0133622329                0               0                0               0
5.5434              0.0732057199     -179.560715       0.46723916    0.0139654276                0               0                0               0
5.5448               0.073064286     -179.563833      0.467684936    0.0146120626                0               0                0               0
5.5462              0.0729248472     -179.567002       0.46813489    0.0152987812                0               0                0               0
5.5476              0.0727873854     -179.570221      0.468589025    0.0160222591                0               0                0               0
5.549               0.0726518829     -179.573486      0.469047346    0.0167792059                0               0                0               0
5.5504              0.0725183226     -179.576798      0.469509855    0.0175663661                0               0                0               0
5.5518              0.0723866881     -179.580155      0.469976556    0.0183805209                0               0                0               0
5.5532              0.0722569633     -179.583554      0.470447452    0.0192184896                0               0                0               0
5.5546              0.0721291327     -179.586994      0.470922544    0.0200771307                0               0                0               0
5.556               0.0720031813     -179.590473      0.471401836    0.0209533438                0               0                0               0
5.5574              0.0718790946     -179.593989      0.471885329    0.0218440706                0               0                0               0
5.5588              0.0717568585     -179.597542      0.472373024    0.0227462965                0               0                0               0
5.5602              0.0716364596     -179.601127      0.472864923     0.023657052                0               0                0               0
5.5616              0.0715178848     -179.604744      0.473361027    0.0245734142                0               0                0               0
5.563               0.0714011214     -179.608391      0.473861337    0.0254925082                0               0                0               0
5.5644              0.0712861575     -179.612065      0.474365852    0.0264115081                0               0                0               0
5.5658              0.0711729814     -179.615765      0.474874573     0.027327639                0               0                0               0
5.5672              0.0710615819     -179.619487        0.4753875     0.028238178                0               0                0               0
5.5686              0.0709519483     -179.623231      0.475904632    0.0291404557                0               0                0               0
5.57                0.0708440705     -179.626993      0.476425969    0.0300318576                0               0                0               0
5.5714              0.0707379385     -179.630772       0.47695151    0.0309098254                0               0                0               0
5.5728              0.0706335431     -179.634565      0.477481253    0.0317718582                0               0                0               0
5.5742              0.0705308754     -179.638369      0.478015197    0.0326155142                0               0                0               0
5.5756              0.0704299269     -179.642184       0.47855334    0.0334384117                0               0                0               0
5.577               0.0703306896     -179.646005      0.479095681    0.0342382304                0               0                0               0
5.5784               0.070233156     -179.649831      0.479642218    0.0350127132                0               0                0               0
5.5798              0.0701373189      -179.65366      0.480192947    0.0357596666                0               0                0               0
5.5812              0.0700431716     -179.657488      0.480747867    0.0364769627                0               0                0               0
5.5826              0.0699507079     -179.661314      0.481306975    0.0371625402                0               0                0               0
5.584               0.0698599219     -179.665135      0.481870269    0.0378144054                0               0                0               0
5.5854              0.0697708083     -179.668949      0.482437744    0.0384306337                0               0                0               0
5.5868              0.0696833621     -179.672752      0.483009399    0.0390093707                0               0                0               0
5.5882              0.0695975786     -179.676543      0.483585229    0.0395488331                0               0                0               0
5.5896              0.0695134539      -179.68032      0.484165232    0.0400473103                0               0                0               0
5.591               0.0694309841     -179.684078      0.484749404     0.040503165                0               0                0               0
5.5924              0.0693501661     -179.687817      0.485337741    0.0409148345                0               0                0               0
5.5938              0.0692709969     -179.691534      0.485930239    0.0412808318                0               0                0               0
5.5952              0.0691934742     -179.695226      0.486526896    0.0415997466                0               0                0               0
5.5966              0.0691175959      -179.69889      0.487127707     0.041870246                0               0                0               0
5.598               0.0690433604     -179.702524      0.487732668    0.0420910759                0               0                0               0
5.5994              0.0689707665     -179.706126      0.488341775    0.0422610613                0               0                0               0
5.6008              0.0688998136     -179.709694      0.488955025     0.042379108                0               0                0               0
5.6022              0.0688305014     -179.713224      0.489572414    0.0424442027                0               0                0               0
5.6036              0.0687628298     -179.716715      0.490193938    0.0424554139                0               0                0               0
5.605               0.0686967994     -179.720163      0.490819593    0.0424118932                0               0                0               0
5.6064              0.0686324112     -179.723567      0.491449375    0.0423128753                0               0                0               0
5.6078              0.0685696666     -179.726925      0.492083282    0.0421576792                0               0                0               0
5.6092              0.0685085673     -179.730233      0.492721309    0.0419457085                0               0                0               0
5.6106              0.0684491156      -179.73349      0.493363453    0.0416764522                0               0                0               0
5.612               0.0683913142     -179.736693      0.494009711    0.0413494848                0               0                0               0
5.6134              0.0683351661     -179.739841       0.49466008    0.0409644675                0               0                0               0
5.6148              0.0682806748      -179.74293      0.495314557    0.0405211478                0               0                0               0
5.6162              0.0682278444      -179.74596      0.495973139    0.0400193606                0               0                0               0
5.6176              0.0681766792     -179.748927      0.496635825     0.039459028                0               0                0               0
5.619                0.068127184     -179.751829      0.497302611    0.0388401596                0               0                0               0
5.6204              0.0680793642     -179.754666      0.497973496    0.0381628528                0               0                0               0
5.6218              0.0680332254     -179.757434      0.498648479    0.0374272932                0               0                0               0
5.6232              0.0679887738     -179.760131      0.499327557    0.0366337541                0               0                0               0
5.6246              0.0679460161     -179.762757      0.500010732    0.0357825967                0               0                0               0
5.626               0.0679049594     -179.765309      0.500698001    0.0348742702                0               0                0               0
5.6274              0.0678656111     -179.767785      0.501389366    0.0339093115                0               0                0               0
5.6288              0.0678279792     -179.770184      0.502084826    0.0328883449                0               0                0               0
5.6302              0.0677920723     -179.772504      0.502784382    0.0318120819                0               0                0               0
5.6316              0.0677578993     -179.774743      0.503488036    0.0306813207                0               0                0               0
5.633               0.0677254695     -179.776901      0.504195789     0.029496946                0               0                0               0
5.6344              0.0676947929     -179.778976      0.504907644    0.0282599279                0               0                0               0
5.6358              0.0676658799     -179.780965      0.505623605     0.026971322                0               0                0               0
5.6372              0.0676387412     -179.782869      0.506343675     0.025632268                0               0                0               0
5.6386              0.0676133883     -179.784686      0.507067857    0.0242439891                0               0                0               0
5.64                 0.067589833     -179.786415      0.507796158    0.0228077913                0               0                0               0
5.6414              0.0675680877     -179.788055      0.508528583    0.0213250621                0               0                0               0
5.6428              0.0675481652     -179.789605      0.509265139    0.0197972695                0               0                0               0
5.6442              0.0675300789     -179.791064      0.510005832    0.0182259605                0               0                0               0
5.6456              0.0675138428     -179.792432      0.510750671    0.0166127604                0               0                0               0
5.647               0.0674994713     -179.793708      0.511499665    0.0149593705                0               0                0               0
5.6484              0.0674869793     -179.794892      0.512252824    0.0132675674                0               0                0               0
5.6498              0.0674763825     -179.795983      0.513010158    0.0115392007                0               0                0               0
5.6512              0.0674676968      -179.79698      0.513771679   0.00977619143                0               0                0               0
5.6526               0.067460939     -179.797884      0.514537401   0.00798053009                0               0                0               0
5.654               0.0674561261     -179.798695      0.515307336   0.00615427469                0               0                0               0
5.6554              0.0674532761     -179.799413        0.5160815    0.0042995485                0               0                0               0
5.6568              0.0674524073     -179.800037      0.516859908   0.00241853775                0               0                0               0
5.6582              0.0674535386     -179.800569      0.517642578  0.000513489171                0               0                0               0
5.6596              0.0674566897     -179.801008      0.518429528  -0.00141329253                0               0                0               0
5.661               0.0674618807     -179.801355      0.519220778  -0.00335944743                0               0                0               0
5.6624              0.0674691324     -179.801611      0.520016348  -0.00532256328                0               0                0               0
5.6638              0.0674784664     -179.801776       0.52081626  -0.00730017846                0               0                0               0
5.6652              0.0674899046     -179.801852      0.521620537  -0.00928978521                0               0                0               0
5.6666                0.06750347     -179.801839      0.522429205   -0.0112888329                0               0                0               0
5.668               0.0675191859     -179.801739       0.52324229   -0.0132947315                0               0                0               0
5.6694              0.0675370764     -179.801553      0.524059819   -0.0153048553                0               0                0               0
5.6708              0.0675571664     -179.801283      0.524881821   -0.0173165467                0               0                0               0
5.6722              0.0675794814     -179.800929      0.525708327   -0.0193271199                0               0                0               0
5.6736              0.0676040478     -179.800494      0.526539369   -0.0213338656                0               0                0               0
5.675               0.0676308924      -179.79998      0.527374982   -0.0233340546                0               0                0               0
5.6764              0.0676600432     -179.799388      0.528215199   -0.0253249428                0               0                0               0
5.6778              0.0676915285     -179.798722      0.529060059   -0.0273037756                0               0                0               0
5.6792              0.0677253779     -179.797982      0.529909601    -0.029267793                0               0                0               0
5.6806              0.0677616215     -179.797172      0.530763864   -0.0312142341                0               0                0               0
5.682               0.0678002902     -179.796293      0.531622891   -0.0331403427                0               0                0               0
5.6834              0.0678414159      -179.79535      0.532486726   -0.0350433724                0               0                0               0
5.6848              0.0678850313     -179.794344      0.533355415   -0.0369205922                0               0                0               0
5.6862              0.0679311701     -179.793279      0.534229007   -0.0387692923                0               0                0               0
5.6876              0.0679798667     -179.792158      0.535107549   -0.0405867899                0               0                0               0
5.689               0.0680311567     -179.790983      0.535991095   -0.0423704351                0               0                0               0
5.6904              0.0680850764     -179.789759      0.536879698   -0.0441176175                0               0                0               0
5.6918              0.0681416634     -179.788489      0.537773412    -0.045825772                0               0                0               0
5.6932               0.068200956     -179.787177      0.538672297    -0.047492386                0               0                0               0
5.6946              0.0682629938     -179.785826       0.53957641   -0.0491150057                0               0                0               0
5.696               0.0683278173     -179.784441      0.540485814   -0.0506912431                0               0                0               0
5.6974              0.0683954683     -179.783025      0.541400572   -0.0522187832                0               0                0               0
5.6988              0.0684659896     -179.781583      0.542320749   -0.0536953908                0               0                0               0
5.7002              0.0685394252     -179.780119      0.543246414   -0.0551189182                0               0                0               0
5.7016              0.0686158203     -179.778637      0.544177636   -0.0564873125                0               0                0               0
5.703               0.0686952215     -179.777142      0.545114486   -0.0577986229                0               0                0               0
5.7044              0.0687776764     -179.775638      0.546057039   -0.0590510089                0               0                0               0
5.7058              0.0688632343     -179.774131       0.54700537   -0.0602427478                0               0                0               0
5.7072              0.0689519457     -179.772625      0.547959557   -0.0613722423                0               0                0               0
5.7086              0.0690438625     -179.771125       0.54891968   -0.0624380289                0               0                0               0
5.71                0.0691390382     -179.769635       0.54988582   -0.0634387856                0               0                0               0
5.7114              0.0692375277     -179.768162      0.550858062   -0.0643733399                0               0                0               0
5.7128              0.0693393875      -179.76671      0.551836492   -0.0652406769                0               0                0               0
5.7142               0.069444676     -179.765283      0.552821196   -0.0660399472                0               0                0               0
5.7156              0.0695534531     -179.763888      0.553812265    -0.066770475                0               0                0               0
5.717               0.0696657804      -179.76253      0.554809791   -0.0674317658                0               0                0               0
5.7184              0.0697817216     -179.761213      0.555813865   -0.0680235143                0               0                0               0
5.7198              0.0699013421     -179.759943      0.556824583   -0.0685456122                0               0                0               0
5.7212              0.0700247095     -179.758726      0.557842042   -0.0689981556                0               0                0               0
5.7226              0.0701518934     -179.757566      0.558866339   -0.0693814521                0               0                0               0
5.724               0.0702829656     -179.756468      0.559897575   -0.0696960283                0               0                0               0
5.7254                  0.070418     -179.755438      0.560935849   -0.0699426363                0               0                0               0
5.7268              0.0705570733     -179.754481      0.561981264   -0.0701222602                0               0                0               0
5.7282              0.0707002642     -179.753602      0.563033925   -0.0702361223                0               0                0               0
5.7296              0.0708476543     -179.752805      0.564093934   -0.0702856885                0               0                0               0
5.731               0.0709993279     -179.752095      0.565161397   -0.0702726738                0               0                0               0
5.7324              0.0711553718     -179.751478      0.566236422   -0.0701990465                0               0                0               0
5.7338              0.0713158763     -179.750957      0.567319114   -0.0700670328                0               0                0               0
5.7352              0.0714809345     -179.750537       0.56840958   -0.0698791192                0               0                0               0
5.7366              0.0716506427     -179.750222       0.56950793    -0.069638056                0               0                0               0
5.738               0.0718251009     -179.750015      0.570614269   -0.0693468583                0               0                0               0
5.7394              0.0720044125     -179.749921      0.571728707   -0.0690088071                0               0                0               0
5.7408              0.0721886848     -179.749944      0.572851351   -0.0686274491                0               0                0               0
5.7422              0.0723780289     -179.750085      0.573982307   -0.0682065953                0               0                0               0
5.7436              0.0725725605     -179.750348      0.575121684   -0.0677503184                0               0                0               0
5.745               0.0727723993     -179.750736      0.576269585   -0.0672629493                0               0                0               0
5.7464              0.0729776699     -179.751251      0.577426115   -0.0667490716                0               0                0               0
5.7478              0.0731885017     -179.751894      0.578591378   -0.0662135151                0               0                0               0
5.7492              0.0734050294     -179.752667      0.579765475   -0.0656613474                0               0                0               0
5.7506              0.0736273931     -179.753571      0.580948506   -0.0650978638                0               0                0               0
5.752               0.0738557388     -179.754607      0.582140567   -0.0645285756                0               0                0               0
5.7534              0.0740902185     -179.755775      0.583341753   -0.0639591961                0               0                0               0
5.7548              0.0743309907     -179.757075      0.584552156   -0.0633956246                0               0                0               0
5.7562              0.0745782208     -179.758505      0.585771865   -0.0628439281                0               0                0               0
5.7576              0.0748320815     -179.760064      0.587000966   -0.0623103209                0               0                0               0
5.759               0.0750927532     -179.761751      0.588239539   -0.0618011413                0               0                0               0
5.7604              0.0753604245     -179.763563      0.589487661    -0.061322826                0               0                0               0
5.7618              0.0756352925     -179.765497      0.590745407   -0.0608818816                0               0                0               0
5.7632              0.0759175638      -179.76755      0.592012843    -0.060484853                0               0                0               0
5.7646              0.0762074546     -179.769717      0.593290033   -0.0601382892                0               0                0               0
5.766               0.0765051915     -179.771994      0.594577034   -0.0598487053                0               0                0               0
5.7674              0.0768110123     -179.774375      0.595873898   -0.0596225423                0               0                0               0
5.7688              0.0771251665     -179.776855      0.597180669   -0.0594661221                0               0                0               0
5.7702              0.0774479161     -179.779427      0.598497386   -0.0593856001                0               0                0               0
5.7716              0.0777795366     -179.782084      0.599824082    -0.059386914                0               0                0               0
5.773               0.0781203177     -179.784819      0.601160782   -0.0594757288                0               0                0               0
5.7744              0.0784705641     -179.787623      0.602507502   -0.0596573782                0               0                0               0
5.7758              0.0788305971     -179.790489      0.603864253   -0.0599368025                0               0                0               0