! TOUCHSTONE file generated by CST MICROWAVE STUDIO
! Date and time: Sat May 17 23:52:12 2025
! Project name: X波段窗片重构-标准输入.cst
! Parameters = {L=6; PIN=3100; a=20; b=10; blendraduis=2.85; d=5; s=4; ta=16.03; tb=10.61; trh=1.69; wr=11.49; wt=0.91}
! Header version: 2018
! Port assignment regex: !\s*Touchstone port\s*([0-9]+)\s*=\s*(CST MWS port|CST DS port)\s*([0-9]+|Zmin|Zmax)\s*\(\"(.*)\"\)(\s*mode\s*([0-9]+))?.*
! Touchstone port assignment:
! Touchstone port 1 = CST MWS port 1 ("")
! Touchstone port 2 = CST MWS port 2 ("")
! S-Parameters are not renormalized. Unphysical impedance of 0 will be written to the file.
# GHz S MA R 0
5.5                 0.0787063848     -179.493102      0.455454513    0.0330512846                0               0                0               0
5.5014              0.0784905405     -179.494201      0.455774655    0.0306334742                0               0                0               0
5.5028              0.0782775925     -179.495365      0.456098676    0.0283689075                0               0                0               0
5.5042              0.0780674996     -179.496594      0.456426591    0.0262538954                0               0                0               0
5.5056              0.0778602216     -179.497891      0.456758412    0.0242847425                0               0                0               0
5.507               0.0776557191     -179.499257      0.457094155    0.0224577478                0               0                0               0
5.5084              0.0774539537     -179.500691      0.457433832    0.0207692059                0               0                0               0
5.5098              0.0772548879     -179.502197      0.457777457    0.0192154082                0               0                0               0
5.5112              0.0770584853     -179.503774      0.458125041    0.0177926439                0               0                0               0
5.5126              0.0768647101     -179.505423      0.458476598    0.0164972011                0               0                0               0
5.514               0.0766735274     -179.507144      0.458832139    0.0153253683                0               0                0               0
5.5154              0.0764849034     -179.508939      0.459191677    0.0142734351                0               0                0               0
5.5168              0.0762988048     -179.510807      0.459555223    0.0133376938                0               0                0               0
5.5182              0.0761151992     -179.512748      0.459922788    0.0125144402                0               0                0               0
5.5196              0.0759340551     -179.514763      0.460294383    0.0117999753                0               0                0               0
5.521               0.0757553417     -179.516851      0.460670019    0.0111906062                0               0                0               0
5.5224               0.075579029     -179.519013      0.461049705    0.0106826475                0               0                0               0
5.5238              0.0754050876     -179.521247      0.461433452    0.0102724224                0               0                0               0
5.5252              0.0752334891     -179.523554      0.461821269    0.0099562642                0               0                0               0
5.5266              0.0750642056     -179.525934      0.462213166   0.00973051738                0               0                0               0
5.528               0.0748972099     -179.528384       0.46260915   0.00959153907                0               0                0               0
5.5294              0.0747324756     -179.530906      0.463009232   0.00953570027                0               0                0               0
5.5308               0.074569977     -179.533497       0.46341342   0.00955938722                0               0                0               0
5.5322              0.0744096889     -179.536158       0.46382172   0.00965900267                0               0                0               0
5.5336              0.0742515871     -179.538886      0.464234141    0.0098309673                0               0                0               0
5.535               0.0740956475     -179.541682       0.46465069     0.010071721                0               0                0               0
5.5364              0.0739418472     -179.544543      0.465071374    0.0103777244                0               0                0               0
5.5378              0.0737901636      -179.54747      0.465496199      0.01074546                0               0                0               0
5.5392              0.0736405748     -179.550459      0.465925172    0.0111714336                0               0                0               0
5.5406              0.0734930595     -179.553511      0.466358299     0.011652176                0               0                0               0
5.542               0.0733475969     -179.556623      0.466795585    0.0121842439                0               0                0               0
5.5434              0.0732041671     -179.559794      0.467237036    0.0127642217                0               0                0               0
5.5448              0.0730627503     -179.563022      0.467682656    0.0133887227                0               0                0               0
5.5462              0.0729233277     -179.566306       0.46813245    0.0140543906                0               0                0               0
5.5476              0.0727858809     -179.569644      0.468586422    0.0147579008                0               0                0               0
5.549                0.072650392     -179.573034      0.469044576     0.015495962                0               0                0               0
5.5504              0.0725168437     -179.576474      0.469506917    0.0162653175                0               0                0               0
5.5518              0.0723852192     -179.579963      0.469973446    0.0170627465                0               0                0               0
5.5532              0.0722555023     -179.583498      0.470444168    0.0178850658                0               0                0               0
5.5546              0.0721276773     -179.587078      0.470919084     0.018729131                0               0                0               0
5.556                0.072001729     -179.590699      0.471398198    0.0195918381                0               0                0               0
5.5574              0.0718776428     -179.594361      0.471881511    0.0204701247                0               0                0               0
5.5588              0.0717554045     -179.598061      0.472369025    0.0213609716                0               0                0               0
5.5602              0.0716350003     -179.601796      0.472860741    0.0222614043                0               0                0               0
5.5616              0.0715164172     -179.605565      0.473356661     0.023168494                0               0                0               0
5.563               0.0713996425     -179.609365      0.473856785    0.0240793595                0               0                0               0
5.5644              0.0712846639     -179.613194      0.474361114    0.0249911681                0               0                0               0
5.5658              0.0711714698     -179.617049      0.474869649    0.0259011377                0               0                0               0
5.5672               0.071060049     -179.620928      0.475382389    0.0268065374                0               0                0               0
5.5686              0.0709503906     -179.624829      0.475899333    0.0277046895                0               0                0               0
5.57                0.0708424844     -179.628748      0.476420483    0.0285929703                0               0                0               0
5.5714              0.0707363206     -179.632684      0.476945836     0.029468812                0               0                0               0
5.5728              0.0706318898     -179.636635      0.477475392    0.0303297039                0               0                0               0
5.5742              0.0705291831     -179.640596       0.47800915    0.0311731934                0               0                0               0
5.5756              0.0704281921     -179.644567      0.478547108    0.0319968878                0               0                0               0
5.577               0.0703289087     -179.648543      0.479089265    0.0327984554                0               0                0               0
5.5784              0.0702313254     -179.652523      0.479635617    0.0335756266                0               0                0               0
5.5798              0.0701354351     -179.656505      0.480186165    0.0343261954                0               0                0               0
5.5812              0.0700412311     -179.660484      0.480740904    0.0350480209                0               0                0               0
5.5826              0.0699487072     -179.664459      0.481299834    0.0357390279                0               0                0               0
5.584               0.0698578577     -179.668427       0.48186295    0.0363972088                0               0                0               0
5.5854              0.0697686771     -179.672386       0.48243025    0.0370206242                0               0                0               0
5.5868              0.0696811606     -179.676332      0.483001732    0.0376074046                0               0                0               0
5.5882              0.0695953037     -179.680263      0.483577392    0.0381557512                0               0                0               0
5.5896              0.0695111024     -179.684176      0.484157227    0.0386639371                0               0                0               0
5.591                0.069428553     -179.688069      0.484741234    0.0391303087                0               0                0               0
5.5924              0.0693476523     -179.691939      0.485329409    0.0395532862                0               0                0               0
5.5938              0.0692683977     -179.695783      0.485921748    0.0399313652                0               0                0               0
5.5952              0.0691907867     -179.699599      0.486518249    0.0402631175                0               0                0               0
5.5966              0.0691148175     -179.703384      0.487118907    0.0405471919                0               0                0               0
5.598               0.0690404886     -179.707135      0.487723719    0.0407823155                0               0                0               0
5.5994              0.0689677989      -179.71085      0.488332682    0.0409672944                0               0                0               0
5.6008              0.0688967479     -179.714526       0.48894579    0.0411010146                0               0                0               0
5.6022              0.0688273354      -179.71816      0.489563042     0.041182443                0               0                0               0
5.6036              0.0687595615     -179.721751      0.490184433    0.0412106278                0               0                0               0
5.605               0.0686934271     -179.725295      0.490809959    0.0411846998                0               0                0               0
5.6064               0.068628933      -179.72879      0.491439617    0.0411038728                0               0                0               0
5.6078               0.068566081     -179.732234      0.492073404    0.0409674443                0               0                0               0
5.6092              0.0685048728     -179.735624      0.492711316    0.0407747963                0               0                0               0
5.6106               0.068445311     -179.738957       0.49335335    0.0405253956                0               0                0               0
5.612               0.0683873984     -179.742233      0.493999503    0.0402187945                0               0                0               0
5.6134              0.0683311381     -179.745447      0.494649772    0.0398546315                0               0                0               0
5.6148              0.0682765339     -179.748598      0.495304154    0.0394326312                0               0                0               0
5.6162                0.06822359     -179.751683      0.495962646    0.0389526053                0               0                0               0
5.6176              0.0681723108     -179.754701      0.496625247    0.0384144524                0               0                0               0
5.619               0.0681227014      -179.75765      0.497291955    0.0378181584                0               0                0               0
5.6204              0.0680747672     -179.760526      0.497962767     0.037163797                0               0                0               0
5.6218              0.0680285142     -179.763329      0.498637682    0.0364515294                0               0                0               0
5.6232              0.0679839487     -179.766057      0.499316699    0.0356816047                0               0                0               0
5.6246              0.0679410775     -179.768707      0.499999818    0.0348543597                0               0                0               0
5.626               0.0678999079     -179.771277      0.500687037    0.0339702188                0               0                0               0
5.6274              0.0678604475     -179.773767      0.501378357    0.0330296942                0               0                0               0
5.6288              0.0678227046     -179.776173      0.502073779    0.0320333853                0               0                0               0
5.6302              0.0677866878     -179.778495      0.502773303    0.0309819786                0               0                0               0
5.6316              0.0677524063     -179.780732      0.503476932    0.0298762471                0               0                0               0
5.633               0.0677198695     -179.782881      0.504184665    0.0287170503                0               0                0               0
5.6344              0.0676890877     -179.784941      0.504896507    0.0275053333                0               0                0               0
5.6358              0.0676600713     -179.786912      0.505612461    0.0262421261                0               0                0               0
5.6372              0.0676328313     -179.788791       0.50633253    0.0249285433                0               0                0               0
5.6386              0.0676073795     -179.790578      0.507056718    0.0235657829                0               0                0               0
5.64                0.0675837276     -179.792272      0.507785031    0.0221551256                0               0                0               0
5.6414              0.0675618884     -179.793872      0.508517474    0.0206979337                0               0                0               0
5.6428              0.0675418748     -179.795376      0.509254054    0.0191956499                0               0                0               0
5.6442              0.0675237004     -179.796785      0.509994778    0.0176497965                0               0                0               0
5.6456              0.0675073793     -179.798098      0.510739654    0.0160619736                0               0                0               0
5.647                0.067492926     -179.799314      0.511488691     0.014433858                0               0                0               0
5.6484              0.0674803559     -179.800433        0.5122419    0.0127672014                0               0                0               0
5.6498              0.0674696844     -179.801454       0.51299929    0.0110638291                0               0                0               0
5.6512              0.0674609279     -179.802377      0.513760873   0.00932563784                0               0                0               0
5.6526              0.0674541032     -179.803203      0.514526663   0.00755459417                0               0                0               0
5.654               0.0674492276     -179.803932      0.515296673   0.00575273232                0               0                0               0
5.6554               0.067446319     -179.804563      0.516070917   0.00392215209                0               0                0               0
5.6568              0.0674453961     -179.805096      0.516849411   0.00206501653                0               0                0               0
5.6582              0.0674464778     -179.805533      0.517632174  0.000183549542                0               0                0               0
5.6596              0.0674495839     -179.805874      0.518419222  -0.00171996666                0               0                0               0
5.661               0.0674547347      -179.80612      0.519210575  -0.00364319427                0               0                0               0
5.6624              0.0674619511     -179.806271      0.520006254  -0.00558374272                0               0                0               0
5.6638              0.0674712548     -179.806328      0.520806281  -0.00753917169                0               0                0               0
5.6652              0.0674826679     -179.806292      0.521610678   -0.0095069942                0               0                0               0
5.6666              0.0674962134     -179.806166      0.522419472     -0.01148468                0               0                0               0
5.668               0.0675119147     -179.805949      0.523232687   -0.0134696588                0               0                0               0
5.6694               0.067529796     -179.805644      0.524050352   -0.0154593242                0               0                0               0
5.6708              0.0675498823     -179.805252      0.524872494   -0.0174510372                0               0                0               0
5.6722              0.0675721992     -179.804775      0.525699146   -0.0194421303                0               0                0               0
5.6736              0.0675967731     -179.804215      0.526530338   -0.0214299114                0               0                0               0
5.675               0.0676236309     -179.803574      0.527366104   -0.0234116684                0               0                0               0
5.6764              0.0676528006     -179.802854       0.52820648   -0.0253846732                0               0                0               0
5.6778              0.0676843107     -179.802058      0.529051503   -0.0273461867                0               0                0               0
5.6792              0.0677181906     -179.801188      0.529901211   -0.0292934634                0               0                0               0
5.6806              0.0677544706     -179.800246      0.530755644   -0.0312237565                0               0                0               0
5.682               0.0677931815     -179.799236      0.531614845   -0.0331343228                0               0                0               0
5.6834              0.0678343553     -179.798161      0.532478857   -0.0350224283                0               0                0               0
5.6848              0.0678780247     -179.797023      0.533347726   -0.0368853534                0               0                0               0
5.6862              0.0679242233     -179.795825      0.534221501   -0.0387203989                0               0                0               0
5.6876              0.0679729855     -179.794572      0.535100229   -0.0405248915                0               0                0               0
5.689               0.0680243469     -179.793267      0.535983963   -0.0422961901                0               0                0               0
5.6904              0.0680783437     -179.791913      0.536872756    -0.044031692                0               0                0               0
5.6918              0.0681350135     -179.790514      0.537766663   -0.0457288389                0               0                0               0
5.6932              0.0681943945     -179.789074      0.538665741   -0.0473851238                0               0                0               0
5.6946              0.0682565262     -179.787597       0.53957005   -0.0489980977                0               0                0               0
5.696               0.0683214491     -179.786087       0.54047965   -0.0505653762                0               0                0               0
5.6974              0.0683892048     -179.784548      0.541394606   -0.0520846467                0               0                0               0
5.6988               0.068459836     -179.782986      0.542314982   -0.0535536755                0               0                0               0
5.7002              0.0685333865     -179.781403      0.543240846    -0.054970315                0               0                0               0
5.7016              0.0686099016     -179.779806      0.544172267   -0.0563325113                0               0                0               0
5.703               0.0686894274     -179.778199      0.545109316   -0.0576383117                0               0                0               0
5.7044              0.0687720118     -179.776586      0.546052068   -0.0588858722                0               0                0               0
5.7058              0.0688577035     -179.774972      0.547000597   -0.0600734656                0               0                0               0
5.7072               0.068946553     -179.773363      0.547954981   -0.0611994889                0               0                0               0
5.7086               0.069038612     -179.771764        0.5489153   -0.0622624713                0               0                0               0
5.71                0.0691339337     -179.770179      0.549881636   -0.0632610827                0               0                0               0
5.7114              0.0692325728     -179.768614      0.550854071   -0.0641941408                0               0                0               0
5.7128              0.0693345857     -179.767074      0.551832692   -0.0650606198                0               0                0               0
5.7142              0.0694400305     -179.765565      0.552817586   -0.0658596581                0               0                0               0
5.7156              0.0695489666     -179.764091      0.553808841   -0.0665905664                0               0                0               0
5.717               0.0696614557     -179.762658      0.554806551   -0.0672528353                0               0                0               0
5.7184              0.0697775609     -179.761272      0.555810806   -0.0678461435                0               0                0               0
5.7198              0.0698973476     -179.759938      0.556821702   -0.0683703652                0               0                0               0
5.7212              0.0700208829      -179.75866      0.557839335   -0.0688255775                0               0                0               0
5.7226              0.0701482361     -179.757445      0.558863802   -0.0692120683                0               0                0               0
5.724               0.0702794786     -179.756297      0.559895204   -0.0695303427                0               0                0               0
5.7254              0.0704146843     -179.755223      0.560933641   -0.0697811302                0               0                0               0
5.7268              0.0705539292     -179.754226      0.561979214   -0.0699653912                0               0                0               0
5.7282              0.0706972918     -179.753311      0.563032027   -0.0700843229                0               0                0               0
5.7296              0.0708448534     -179.752485      0.564092185    -0.070139365                0               0                0               0
5.731               0.0709966977     -179.751751      0.565159792   -0.0701322052                0               0                0               0
5.7324              0.0711529116     -179.751114      0.566234954   -0.0700647833                0               0                0               0
5.7338              0.0713135845     -179.750578      0.567317778    -0.069939296                0               0                0               0
5.7352              0.0714788094     -179.750149      0.568408372   -0.0697581993                0               0                0               0
5.7366              0.0716486822     -179.749829      0.569506843    -0.069524212                0               0                0               0
5.738               0.0718233024     -179.749623      0.570613298   -0.0692403169                0               0                0               0
5.7394              0.0720027732     -179.749533      0.571727845   -0.0689097618                0               0                0               0
5.7408              0.0721872014     -179.749565      0.572850592   -0.0685360595                0               0                0               0
5.7422              0.0723766979      -179.74972      0.573981646   -0.0681229863                0               0                0               0
5.7436              0.0725713777         -179.75      0.575121113   -0.0676745799                0               0                0               0
5.745               0.0727713604      -179.75041      0.576269099   -0.0671951355                0               0                0               0
5.7464              0.0729767701      -179.75095      0.577425707   -0.0666892007                0               0                0               0
5.7478               0.073187736     -179.751622      0.578591043   -0.0661615691                0               0                0               0
5.7492              0.0734043923     -179.752427      0.579765205   -0.0656172717                0               0                0               0
5.7506              0.0736268788     -179.753366      0.580948295   -0.0650615677                0               0                0               0
5.752               0.0738553413     -179.754439       0.58214041   -0.0644999319                0               0                0               0
5.7534              0.0740899313     -179.755647      0.583341643   -0.0639380417                0               0                0               0
5.7548              0.0743308072     -179.756988      0.584552088   -0.0633817606                0               0                0               0
5.7562              0.0745781342     -179.758461      0.585771833   -0.0628371206                0               0                0               0
5.7576              0.0748320847     -179.760064      0.587000963   -0.0623103018                0               0                0               0
5.759               0.0750928388     -179.761796       0.58823956   -0.0618076091                0               0                0               0
5.7604              0.0753605849     -179.763654      0.589487702   -0.0613354468                0               0                0               0
5.7618              0.0756355202     -179.765633      0.590745462   -0.0609002906                0               0                0               0
5.7632               0.075917851     -179.767731      0.592012907   -0.0605086558                0               0                0               0
5.7646              0.0762077935     -179.769942      0.593290102   -0.0601670636                0               0                0               0
5.766               0.0765055742     -179.772262      0.594577104   -0.0598820032                0               0                0               0
5.7674              0.0768114311     -179.774684      0.595873964   -0.0596598915                0               0                0               0
5.7688              0.0771256136     -179.777202      0.597180729   -0.0595070292                0               0                0               0
5.7702               0.077448384      -179.77981      0.598497438   -0.0594295526                0               0                0               0
5.7716              0.0777800177       -179.7825      0.599824122   -0.0594333833                0               0                0               0
5.773               0.0781208048     -179.785264      0.601160807   -0.0595241731                0               0                0               0
5.7744              0.0784710504     -179.788093      0.602507512   -0.0597072457                0               0                0               0
5.7758              0.0788310759     -179.790979      0.603864246   -0.0599875351                0               0                0               0