! TOUCHSTONE file generated by CST MICROWAVE STUDIO
! Date and time: Sat May 17 23:52:12 2025
! Project name: X波段窗片重构-标准输入.cst
! Parameters = {L=6; PIN=3100; a=20; b=10; blendraduis=2.85; d=5; s=4; ta=16.36; tb=10.61; trh=1.69; wr=11.49; wt=0.91}
! Header version: 2018
! Port assignment regex: !\s*Touchstone port\s*([0-9]+)\s*=\s*(CST MWS port|CST DS port)\s*([0-9]+|Zmin|Zmax)\s*\(\"(.*)\"\)(\s*mode\s*([0-9]+))?.*
! Touchstone port assignment:
! Touchstone port 1 = CST MWS port 1 ("")
! Touchstone port 2 = CST MWS port 2 ("")
! S-Parameters are not renormalized. Unphysical impedance of 0 will be written to the file.
# GHz S MA R 0
5.5                 0.0420841469      -178.99506      0.490879314    0.0226986148                0               0                0               0
5.5014              0.0417468987     -179.003211      0.491347456    0.0130723985                0               0                0               0
5.5028              0.0414119058     -179.010536      0.491818781   0.00372970865                0               0                0               0
5.5042              0.0410791289     -179.017057      0.492293336  -0.00532950823                0               0                0               0
5.5056              0.0407485288       -179.0228      0.492771165   -0.0141053071                0               0                0               0
5.507               0.0404200664     -179.027788      0.493252317   -0.0225977421                0               0                0               0
5.5084              0.0400937026     -179.032046      0.493736838   -0.0308068642                0               0                0               0
5.5098              0.0397693988     -179.035596      0.494224774   -0.0387327185                0               0                0               0
5.5112              0.0394471161     -179.038462      0.494716174   -0.0463753415                0               0                0               0
5.5126              0.0391268161     -179.040665      0.495211086   -0.0537347575                0               0                0               0
5.514               0.0388084603     -179.042229      0.495709558   -0.0608109759                0               0                0               0
5.5154              0.0384920104     -179.043176      0.496211639   -0.0676039867                0               0                0               0
5.5168              0.0381774284     -179.043527      0.496717377   -0.0741137573                0               0                0               0
5.5182              0.0378646763     -179.043303      0.497226822   -0.0803402274                0               0                0               0
5.5196              0.0375537164     -179.042525      0.497740023    -0.086283305                0               0                0               0
5.521               0.0372445111     -179.041215       0.49825703   -0.0919428608                0               0                0               0
5.5224              0.0369370228     -179.039392      0.498777893   -0.0973187229                0               0                0               0
5.5238              0.0366312145     -179.037075      0.499302662    -0.102410671                0               0                0               0
5.5252               0.036327049     -179.034286      0.499831388    -0.107218429                0               0                0               0
5.5266              0.0360244894     -179.031042       0.50036412    -0.111741661                0               0                0               0
5.528                0.035723499     -179.027363       0.50090091    -0.115979959                0               0                0               0
5.5294              0.0354240413     -179.023267      0.501441808     -0.11993284                0               0                0               0
5.5308                0.03512608     -179.018771      0.501986865    -0.123599734                0               0                0               0
5.5322               0.034829579     -179.013894       0.50253613    -0.126979975                0               0                0               0
5.5336              0.0345345023     -179.008653      0.503089654    -0.130072794                0               0                0               0
5.535               0.0342408141     -179.003064      0.503647488    -0.132877304                0               0                0               0
5.5364              0.0339484791     -178.997145       0.50420968    -0.135392491                0               0                0               0
5.5378              0.0336574617     -178.990909      0.504776281    -0.137617202                0               0                0               0
5.5392              0.0333677268     -178.984375      0.505347339    -0.139550132                0               0                0               0
5.5406              0.0330792396     -178.977556      0.505922901    -0.141189808                0               0                0               0
5.542               0.0327919652     -178.970467      0.506503015    -0.142534578                0               0                0               0
5.5434              0.0325058692     -178.963123      0.507087728     -0.14358259                0               0                0               0
5.5448              0.0322209172     -178.955537      0.507677083    -0.144331783                0               0                0               0
5.5462               0.031937075     -178.947723      0.508271126    -0.144779862                0               0                0               0
5.5476              0.0316543088     -178.939693      0.508869896    -0.144924286                0               0                0               0
5.549               0.0313725848     -178.931461      0.509473435    -0.144762247                0               0                0               0
5.5504              0.0310918695     -178.923038      0.510081779    -0.144290649                0               0                0               0
5.5518              0.0308121295     -178.914437      0.510694964    -0.143506092                0               0                0               0
5.5532              0.0305333318     -178.905667      0.511313021     -0.14240485                0               0                0               0
5.5546              0.0302554434     -178.896739      0.511935977    -0.140982854                0               0                0               0
5.556               0.0299784317     -178.887665      0.512563858    -0.139235669                0               0                0               0
5.5574              0.0297022641     -178.878453      0.513196682    -0.137158484                0               0                0               0
5.5588              0.0294269082     -178.869112      0.513834462    -0.134746086                0               0                0               0
5.5602              0.0291523321     -178.859652      0.514477206    -0.131992859                0               0                0               0
5.5616              0.0288785037      -178.85008      0.515124914    -0.128892767                0               0                0               0
5.563               0.0286053913     -178.840404      0.515777577    -0.125439357                0               0                0               0
5.5644              0.0283329634     -178.830631      0.516435179    -0.121625759                0               0                0               0
5.5658              0.0280611887     -178.820767       0.51709769    -0.117444704                0               0                0               0
5.5672              0.0277900361     -178.810819       0.51776507    -0.112888551                0               0                0               0
5.5686              0.0275194745     -178.800792      0.518437264    -0.107949327                0               0                0               0
5.57                0.0272494732      -178.79069      0.519114204    -0.102618792                0               0                0               0
5.5714              0.0269800016     -178.780519        0.5197958   -0.0968885286                0               0                0               0
5.5728              0.0267110294     -178.770281      0.520481946   -0.0907500596                0               0                0               0
5.5742              0.0264425262     -178.759979      0.521172513   -0.0841950061                0               0                0               0
5.5756              0.0261744621     -178.749617      0.521867345   -0.0772152925                0               0                0               0
5.577               0.0259068072     -178.739195      0.522566261   -0.0698034072                0               0                0               0
5.5784              0.0256395317     -178.728715      0.523269049   -0.0619527307                0               0                0               0
5.5798              0.0253726063     -178.718177      0.523975464   -0.0536579436                0               0                0               0
5.5812              0.0251060015     -178.707581      0.524685225   -0.0449155276                0               0                0               0
5.5826              0.0248396881     -178.696925      0.525398011   -0.0357243731                0               0                0               0
5.584               0.0245736371     -178.686209      0.526113462   -0.0260865081                0               0                0               0
5.5854              0.0243078196     -178.675429      0.526831175   -0.0160079595                0               0                0               0
5.5868               0.024042207     -178.664582      0.527550706  -0.00549975739                0               0                0               0
5.5882              0.0237767706     -178.653665      0.528271567   0.00542091498                0               0                0               0
5.5896              0.0235114821     -178.642671       0.52899323    0.0167294301                0               0                0               0
5.591               0.0232463131     -178.631596      0.529715137    0.0283923023                0               0                0               0
5.5924              0.0229812356     -178.620431      0.530436701    0.0403656876                0               0                0               0
5.5938              0.0227162215     -178.609171      0.531157324    0.0525938564                0               0                0               0
5.5952               0.022451243     -178.597806      0.531876411    0.0650077299                0               0                0               0
5.5966              0.0221862724     -178.586325      0.532593394    0.0775236004                0               0                0               0
5.598                0.021921282      -178.57472      0.533307756    0.0900421993                0               0                0               0
5.5994              0.0216562443     -178.562976      0.534019069     0.102448301                0               0                0               0
5.6008              0.0213911321     -178.551083      0.534727026     0.114611088                0               0                0               0
5.6022              0.0211259179     -178.539024      0.535431486     0.126385493                0               0                0               0
5.6036              0.0208605748     -178.526785      0.536132513     0.137614736                0               0                0               0
5.605               0.0205950755     -178.514348      0.536830416     0.148134181                0               0                0               0
5.6064              0.0203293931     -178.501695      0.537525786     0.157776572                0               0                0               0
5.6078              0.0200635009     -178.488807      0.538219514     0.166378517                0               0                0               0
5.6092              0.0197973718     -178.475661      0.538912799     0.173787927                0               0                0               0
5.6106              0.0195309794     -178.462234      0.539607137      0.17987193                0               0                0               0
5.612               0.0192642969     -178.448502      0.540304289     0.184524588                0               0                0               0
5.6134              0.0189972977     -178.434438      0.541006223     0.187673678                0               0                0               0
5.6148              0.0187299553     -178.420012       0.54171504     0.189285767                0               0                0               0
5.6162              0.0184622434     -178.405193      0.542432889     0.189368988                0               0                0               0
5.6176              0.0181941354     -178.389948      0.543161875     0.187973102                0               0                0               0
5.619                0.017925605     -178.374242      0.543903964     0.185186815                0               0                0               0
5.6204              0.0176566259     -178.358034      0.544660909     0.181132601                0               0                0               0
5.6218              0.0173871717     -178.341284      0.545434185     0.175959602                0               0                0               0
5.6232              0.0171172162     -178.323947      0.546224948     0.169835358                0               0                0               0
5.6246               0.016846733     -178.305976      0.547034022      0.16293719                0               0                0               0
5.626                0.016575696     -178.287318      0.547861901     0.155443985                0               0                0               0
5.6274              0.0163040789     -178.267918       0.54870877     0.147528989                0               0                0               0
5.6288              0.0160318552     -178.247717      0.549574546     0.139354016                0               0                0               0
5.6302              0.0157589989     -178.226649      0.550458921     0.131065219                0               0                0               0
5.6316              0.0154854834     -178.204646       0.55136141     0.122790451                0               0                0               0
5.633               0.0152112825     -178.181632      0.552281396      0.11463803                0               0                0               0
5.6344              0.0149363697     -178.157526      0.553218179     0.106696685                0               0                0               0
5.6358              0.0146607186     -178.132241      0.554171012    0.0990363995                0               0                0               0
5.6372              0.0143843026     -178.105682       0.55513913    0.0917098818                0               0                0               0
5.6386              0.0141070952     -178.077744      0.556121781    0.0847544145                0               0                0               0
5.64                0.0138290695     -178.048317       0.55711824    0.0781938834                0               0                0               0
5.6414               0.013550199     -178.017277      0.558127826    0.0720408299                0               0                0               0
5.6428              0.0132704567     -177.984492      0.559149907    0.0662984183                0               0                0               0
5.6442              0.0129898156     -177.949816      0.560183909     0.060962248                0               0                0               0
5.6456              0.0127082486     -177.913089      0.561229314    0.0560219707                0               0                0               0
5.647               0.0124257287     -177.874136      0.562285662    0.0514626973                0               0                0               0
5.6484              0.0121422283     -177.832766      0.563352548    0.0472661952                0               0                0               0
5.6498                0.01185772     -177.788765       0.56442962    0.0434118883                0               0                0               0
5.6512              0.0115721763     -177.741899      0.565516572     0.039877677                0               0                0               0
5.6526              0.0112855694     -177.691908      0.566613146    0.0366405994                0               0                0               0
5.654               0.0109978713     -177.638502      0.567719121    0.0336773557                0               0                0               0
5.6554               0.010709054      -177.58136      0.568834315    0.0309647165                0               0                0               0
5.6568              0.0104190893     -177.520121      0.569958576    0.0284798339                0               0                0               0
5.6582              0.0101279489     -177.454379      0.571091783    0.0262004743                0               0                0               0
5.6596             0.00983560428     -177.383679      0.572233838    0.0241051855                0               0                0               0
5.661              0.00954202687     -177.307505      0.573384669    0.0221734135                0               0                0               0
5.6624             0.00924718799     -177.225269      0.574544219    0.0203855776                0               0                0               0
5.6638             0.00895105888     -177.136305      0.575712451    0.0187231148                0               0                0               0
5.6652             0.00865361078     -177.039844      0.576889344    0.0171684987                0               0                0               0
5.6666             0.00835481495     -176.935004      0.578074889    0.0157052411                0               0                0               0
5.668              0.00805464276     -176.820763      0.579269087    0.0143178791                0               0                0               0
5.6694              0.0077530658     -176.695928      0.580471952     0.012991953                0               0                0               0
5.6708             0.00745005599     -176.559102      0.581683504    0.0117139772                0               0                0               0
5.6722             0.00714558575     -176.408636      0.582903774    0.0104714064                0               0                0               0
5.6736             0.00683962828      -176.24257      0.584132796   0.00925259948                0               0                0               0
5.675              0.00653215778     -176.058552      0.585370614   0.00804678225                0               0                0               0
5.6764             0.00622314998      -175.85374      0.586617274    0.0068440094                0               0                0               0
5.6778              0.0059125826     -175.624664       0.58787283   0.00563512744                0               0                0               0
5.6792             0.00560043617     -175.367041      0.589137338   0.00441173856                0               0                0               0
5.6806             0.00528669512     -175.075526      0.590410858   0.00316616595                0               0                0               0
5.682              0.00497134926     -174.743358      0.591693457   0.00189142075                0               0                0               0
5.6834             0.00465439598     -174.361857        0.5929852  0.000581170888                0               0                0               0
5.6848             0.00433584346     -173.919697      0.594286161 -0.000770288162                0               0                0               0
5.6862             0.00401571544     -173.401815      0.595596413  -0.00216806079                0               0                0               0
5.6876             0.00369405864     -172.787743      0.596916035   -0.0036166767                0               0                0               0
5.689               0.0033709546     -172.048953      0.598245106  -0.00512011461                0               0                0               0
5.6904             0.00304653924     -171.144505      0.599583711  -0.00668182419                0               0                0               0
5.6918             0.00272103681     -170.013542      0.600931935  -0.00830474635                0               0                0               0
5.6932             0.00239482193     -168.561711       0.60228987  -0.00999133204                0               0                0               0
5.6946             0.00206854087     -166.634973      0.603657608   -0.0117435597                0               0                0               0
5.696              0.00174336841     -163.965211      0.605035244   -0.0135629511                0               0                0               0
5.6974             0.00142161041     -160.046673       0.60642288   -0.0154505868                0               0                0               0
5.6988             0.00110830846     -153.825723      0.607820616   -0.0174071194                0               0                0               0
5.7002            0.000816200916     -142.859917      0.609228561   -0.0194327868                0               0                0               0
5.7016            0.000582586375     -121.473617      0.610646825   -0.0215274243                0               0                0               0
5.703             0.000503122865     -84.8894042      0.612075522   -0.0236904762                0               0                0               0
5.7044             0.00064240209     -51.9001029      0.613514771   -0.0259210059                0               0                0               0
5.7058            0.000907514383     -34.1995795      0.614964695   -0.0282177069                0               0                0               0
5.7072             0.00122130793     -24.9308374      0.616425422   -0.0305789123                0               0                0               0
5.7086             0.00155650271     -19.5041381      0.617897085   -0.0330026045                0               0                0               0
5.71               0.00190345424     -16.0008136      0.619379822   -0.0354864242                0               0                0               0
5.7114             0.00225818395     -13.5699095      0.620873776     -0.03802768                0               0                0               0
5.7128             0.00261882224     -11.7908453      0.622379097   -0.0406233572                0               0                0               0
5.7142             0.00298440708     -10.4352286       0.62389594    -0.043270127                0               0                0               0
5.7156             0.00335441522     -9.36930773      0.625424467   -0.0459643561                0               0                0               0
5.717              0.00372855597     -8.50988885      0.626964847   -0.0487021154                0               0                0               0
5.7184             0.00410667155      -7.8026413      0.628517255   -0.0514791908                0               0                0               0
5.7198             0.00448868505     -7.21063628      0.630081874   -0.0542910921                0               0                0               0
5.7212             0.00487457155     -6.70792259      0.631658897   -0.0571330645                0               0                0               0
5.7226             0.00526434132     -6.27574294      0.633248522   -0.0600000991                0               0                0               0
5.724              0.00565802956      -5.9002096      0.634850958   -0.0628869444                0               0                0               0
5.7254             0.00605568995     -5.57082438      0.636466421   -0.0657881191                0               0                0               0
5.7268             0.00645739048     -5.27950622       0.63809514   -0.0686979243                0               0                0               0
5.7282             0.00686321076     -5.01993481       0.63973735   -0.0716104579                0               0                0               0
5.7296             0.00727324013     -4.78709678        0.6413933   -0.0745196291                0               0                0               0
5.731              0.00768757644     -4.57696524      0.643063249   -0.0774191738                0               0                0               0
5.7324             0.00810632524     -4.38626904      0.644747466   -0.0803026714                0               0                0               0
5.7338             0.00852959918     -4.21232401      0.646446234   -0.0831635626                0               0                0               0
5.7352             0.00895751776     -4.05290741      0.648159848   -0.0859951684                0               0                0               0
5.7366             0.00939020702     -3.90616339      0.649888618     -0.08879071                0               0                0               0
5.738              0.00982779951     -3.77053074      0.651632864   -0.0915433307                0               0                0               0
5.7394              0.0102704343      -3.6446872      0.653392924   -0.0942461186                0               0                0               0
5.7408              0.0107182569     -3.52750593       0.65516915   -0.0968921315                0               0                0               0
5.7422              0.0111714197     -3.41802127       0.65696191   -0.0994744221                0               0                0               0
5.7436              0.0116300816     -3.31540146      0.658771587    -0.101986066                0               0                0               0
5.745               0.0120944087     -3.21892681      0.660598584    -0.104420193                0               0                0               0
5.7464              0.0125645743     -3.12797203      0.662443319    -0.106770014                0               0                0               0
5.7478              0.0130407591     -3.04199189       0.66430623    -0.109028857                0               0                0               0
5.7492              0.0135231515     -2.96050947      0.666187775    -0.111190202                0               0                0               0
5.7506              0.0140119481     -2.88310641      0.668088431    -0.113247719                0               0                0               0
5.752               0.0145073537     -2.80941489      0.670008696      -0.1151953                0               0                0               0
5.7534              0.0150095819     -2.73911096      0.671949091     -0.11702711                0               0                0               0
5.7548              0.0155188554     -2.67190883      0.673910157    -0.118737622                0               0                0               0
5.7562              0.0160354065     -2.60755625      0.675892462    -0.120321665                0               0                0               0
5.7576              0.0165594771     -2.54583041      0.677896595    -0.121774471                0               0                0               0
5.759                 0.01709132     -2.48653456      0.679923173    -0.123091726                0               0                0               0
5.7604              0.0176311983      -2.4294951      0.681972837    -0.124269614                0               0                0               0
5.7618              0.0181793868     -2.37455912      0.684046256    -0.125304881                0               0                0               0
5.7632              0.0187361722     -2.32159217      0.686144127     -0.12619488                0               0                0               0
5.7646              0.0193018535     -2.27047647      0.688267175    -0.126937632                0               0                0               0
5.766               0.0198767431     -2.22110924      0.690416158    -0.127531888                0               0                0               0
5.7674              0.0204611667     -2.17340134       0.69259186    -0.127977181                0               0                0               0
5.7688              0.0210554649     -2.12727597      0.694795102    -0.128273893                0               0                0               0
5.7702              0.0216599931     -2.08266761      0.697026734    -0.128423316                0               0                0               0
5.7716              0.0222751229     -2.03952103      0.699287642    -0.128427712                0               0                0               0
5.773               0.0229012425     -1.99779045      0.701578748    -0.128290381                0               0                0               0
5.7744              0.0235387577      -1.9574387      0.703901007    -0.128015718                0               0                0               0
5.7758              0.0241880932     -1.91843656      0.706255415    -0.127609281                0               0                0               0