! TOUCHSTONE file generated by CST MICROWAVE STUDIO
! Date and time: Sat May 17 20:08:07 2025
! Project name: X波段窗片重构-标准输入.cst
! Parameters = {L=6; PIN=3100; a=20; b=10; blendraduis=2.85; d=5; s=4; ta=16.03; tb=10.61; trh=1.69; wr=11.49; wt=0.91}
! Header version: 2018
! Port assignment regex: !\s*Touchstone port\s*([0-9]+)\s*=\s*(CST MWS port|CST DS port)\s*([0-9]+|Zmin|Zmax)\s*\(\"(.*)\"\)(\s*mode\s*([0-9]+))?.*
! Touchstone port assignment:
! Touchstone port 1 = CST MWS port 1 ("")
! Touchstone port 2 = CST MWS port 2 ("")
! S-Parameters are not renormalized. Unphysical impedance of 0 will be written to the file.
# GHz S MA R 0
5.5                 0.0787063847     -179.493102      0.455454513    0.0330512846                0               0                0               0
5.5014              0.0784905426     -179.494202      0.455774655    0.0306334544                0               0                0               0
5.5028              0.0782775965     -179.495367      0.456098676      0.02836887                0               0                0               0
5.5042              0.0780675053     -179.496597       0.45642659    0.0262538425                0               0                0               0
5.5056              0.0778602288     -179.497894      0.456758411    0.0242846762                0               0                0               0
5.507               0.0776557275      -179.49926      0.457094154      0.02245767                0               0                0               0
5.5084              0.0774539631     -179.500696      0.457433831    0.0207691186                0               0                0               0
5.5098              0.0772548983     -179.502202      0.457777455    0.0192153131                0               0                0               0
5.5112              0.0770584963     -179.503779      0.458125039    0.0177925426                0               0                0               0
5.5126              0.0768647216     -179.505429      0.458476596    0.0164970953                0               0                0               0
5.514               0.0766735394     -179.507151      0.458832138    0.0153252595                0               0                0               0
5.5154              0.0764849156     -179.508945      0.459191675    0.0142733246                0               0                0               0
5.5168               0.076298817     -179.510813      0.459555221    0.0133375829                0               0                0               0
5.5182              0.0761152114     -179.512755      0.459922786    0.0125143302                0               0                0               0
5.5196              0.0759340672      -179.51477      0.460294381    0.0117998673                0               0                0               0
5.521               0.0757553535     -179.516858      0.460670017    0.0111905012                0               0                0               0
5.5224              0.0755790405      -179.51902      0.461049703    0.0106825464                0               0                0               0
5.5238              0.0754050986     -179.521254       0.46143345    0.0102723262                0               0                0               0
5.5252              0.0752334996     -179.523561      0.461821267   0.00995617357                0               0                0               0
5.5266              0.0750642154      -179.52594      0.462213164   0.00973043306                0               0                0               0
5.528                0.074897219      -179.52839      0.462609149   0.00959146168                0               0                0               0
5.5294              0.0747324839     -179.530911      0.463009231   0.00953563036                0               0                0               0
5.5308              0.0745699845     -179.533502      0.463413418   0.00955932524                0               0                0               0
5.5322              0.0744096956     -179.536162      0.463821718   0.00965894901                0               0                0               0
5.5336              0.0742515928      -179.53889      0.464234139   0.00983092228                0               0                0               0
5.535               0.0740956523     -179.541685      0.464650689    0.0100716849                0               0                0               0
5.5364               0.073941851     -179.544546      0.465071373    0.0103776973                0               0                0               0
5.5378              0.0737901663     -179.547471      0.465496198     0.010745442                0               0                0               0
5.5392              0.0736405764      -179.55046      0.465925172    0.0111714248                0               0                0               0
5.5406                0.07349306     -179.553511      0.466358298    0.0116521763                0               0                0               0
5.542               0.0733475964     -179.556622      0.466795585    0.0121842533                0               0                0               0
5.5434              0.0732041654     -179.559792      0.467237035      0.01276424                0               0                0               0
5.5448              0.0730627475     -179.563019      0.467682656    0.0133887497                0               0                0               0
5.5462              0.0729233238     -179.566302       0.46813245     0.014054426                0               0                0               0
5.5476              0.0727858758     -179.569639      0.468586422    0.0147579442                0               0                0               0
5.549               0.0726503858     -179.573028      0.469044577    0.0154960131                0               0                0               0
5.5504              0.0725168363     -179.576467      0.469506918    0.0162653758                0               0                0               0
5.5518              0.0723852107     -179.579955      0.469973447    0.0170628115                0               0                0               0
5.5532              0.0722554928     -179.583488      0.470444169     0.017885137                0               0                0               0
5.5546              0.0721276667     -179.587066      0.470919086    0.0187292079                0               0                0               0
5.556               0.0720017174     -179.590687        0.4713982    0.0195919199                0               0                0               0
5.5574              0.0718776301     -179.594347      0.471881513    0.0204702109                0               0                0               0
5.5588              0.0717553907     -179.598046      0.472369027    0.0213610615                0               0                0               0
5.5602              0.0716349856      -179.60178      0.472860744     0.022261497                0               0                0               0
5.5616              0.0715164015     -179.605547      0.473356664    0.0231685888                0               0                0               0
5.563               0.0713996259     -179.609345      0.473856789    0.0240794556                0               0                0               0
5.5644              0.0712846464     -179.613173      0.474361118    0.0249912647                0               0                0               0
5.5658              0.0711714515     -179.617026      0.474869653    0.0259012338                0               0                0               0
5.5672              0.0710600299     -179.620904      0.475382393    0.0268066322                0               0                0               0
5.5686              0.0709503707     -179.624803      0.475899338     0.027704782                0               0                0               0
5.57                0.0708424638     -179.628721      0.476420488    0.0285930596                0               0                0               0
5.5714              0.0707362993     -179.632656      0.476945842    0.0294688972                0               0                0               0
5.5728              0.0706318679     -179.636604      0.477475398    0.0303297839                0               0                0               0
5.5742              0.0705291606     -179.640564      0.478009157    0.0311732673                0               0                0               0
5.5756               0.070428169     -179.644533      0.478547115    0.0319969546                0               0                0               0
5.577               0.0703288851     -179.648508      0.479089272     0.032798514                0               0                0               0
5.5784              0.0702313014     -179.652486      0.479635625     0.033575676                0               0                0               0
5.5798              0.0701354106     -179.656466      0.480186173    0.0343262347                0               0                0               0
5.5812              0.0700412063     -179.660444      0.480740912    0.0350480489                0               0                0               0
5.5826              0.0699486821     -179.664417      0.481299842    0.0357390436                0               0                0               0
5.584               0.0698578324     -179.668384      0.481862959    0.0363972111                0               0                0               0
5.5854              0.0697686516     -179.672341      0.482430259    0.0370206122                0               0                0               0
5.5868               0.069681135     -179.676285      0.483001742    0.0376073772                0               0                0               0
5.5882               0.069595278     -179.680215      0.483577402    0.0381557073                0               0                0               0
5.5896              0.0695110766     -179.684127      0.484157237    0.0386638759                0               0                0               0
5.591               0.0694285272     -179.688018      0.484741244     0.039130229                0               0                0               0
5.5924              0.0693476266     -179.691886      0.485329419    0.0395531871                0               0                0               0
5.5938              0.0692683721     -179.695729      0.485921759    0.0399312457                0               0                0               0
5.5952              0.0691907613     -179.699543       0.48651826    0.0402629767                0               0                0               0
5.5966              0.0691147923     -179.703327      0.487118919    0.0405470288                0               0                0               0
5.598               0.0690404637     -179.707076      0.487723731    0.0407821293                0               0                0               0
5.5994              0.0689677744      -179.71079      0.488332694    0.0409670841                0               0                0               0
5.6008              0.0688967237     -179.714464      0.488945803    0.0411007794                0               0                0               0
5.6022              0.0688273116     -179.718097      0.489563055    0.0411821819                0               0                0               0
5.6036              0.0687595382     -179.721687      0.490184446    0.0412103401                0               0                0               0
5.605               0.0686934043      -179.72523      0.490809973    0.0411843848                0               0                0               0
5.6064              0.0686289108     -179.728723      0.491439631    0.0411035297                0               0                0               0
5.6078              0.0685660594     -179.732166      0.492073418    0.0409670724                0               0                0               0
5.6092              0.0685048519     -179.735555      0.492711331    0.0407743949                0               0                0               0
5.6106              0.0684452908     -179.738887      0.493353365    0.0405249641                0               0                0               0
5.612               0.0683873789     -179.742161      0.493999518    0.0402183324                0               0                0               0
5.6134              0.0683311194     -179.745374      0.494649787    0.0398541381                0               0                0               0
5.6148              0.0682765161     -179.748524      0.495304169    0.0394321061                0               0                0               0
5.6162               0.068223573     -179.751609      0.495962662     0.038952048                0               0                0               0
5.6176              0.0681722947     -179.754626      0.496625263    0.0384138624                0               0                0               0
5.619               0.0681226862     -179.757573       0.49729197    0.0378175354                0               0                0               0
5.6204              0.0680747531     -179.760449      0.497962783    0.0371631406                0               0                0               0
5.6218              0.0680285011     -179.763251      0.498637698    0.0364508394                0               0                0               0
5.6232              0.0679839366     -179.765978      0.499316715    0.0356808809                0               0                0               0
5.6246              0.0679410665     -179.768627      0.499999834    0.0348536018                0               0                0               0
5.626               0.0678998979     -179.771197      0.500687053    0.0339694268                0               0                0               0
5.6274              0.0678604387     -179.773686      0.501378374     0.033028868                0               0                0               0
5.6288               0.067822697     -179.776092      0.502073796    0.0320325248                0               0                0               0
5.6302              0.0677866814     -179.778414       0.50277332    0.0309810838                0               0                0               0
5.6316               0.067752401     -179.780649      0.503476948    0.0298753182                0               0                0               0
5.633               0.0677198655     -179.782798      0.504184682    0.0287160874                0               0                0               0
5.6344              0.0676890849     -179.784858      0.504896524    0.0275043366                0               0                0               0
5.6358              0.0676600697     -179.786828      0.505612478    0.0262410959                0               0                0               0
5.6372              0.0676328311     -179.788708      0.506332546    0.0249274799                0               0                0               0
5.6386              0.0676073805     -179.790494      0.507056734    0.0235646867                0               0                0               0
5.64                0.0675837299     -179.792188      0.507785047     0.022153997                0               0                0               0
5.6414               0.067561892     -179.793788       0.50851749    0.0206967731                0               0                0               0
5.6428              0.0675418797     -179.795292       0.50925407    0.0191944579                0               0                0               0
5.6442              0.0675237066     -179.796702      0.509994794    0.0176485737                0               0                0               0
5.6456              0.0675073868     -179.798014       0.51073967    0.0160607206                0               0                0               0
5.647               0.0674929349      -179.79923      0.511488707    0.0144325756                0               0                0               0
5.6484               0.067480366     -179.800349      0.512241916    0.0127658903                0               0                0               0
5.6498              0.0674696958     -179.801371      0.512999306    0.0110624901                0               0                0               0
5.6512              0.0674609407     -179.802295      0.513760889   0.00932427184                0               0                0               0
5.6526              0.0674541172     -179.803121      0.514526678   0.00755320209                0               0                0               0
5.654               0.0674492429      -179.80385      0.515296688   0.00575131515                0               0                0               0
5.6554              0.0674463356     -179.804481      0.516070932   0.00392071084                0               0                0               0
5.6568              0.0674454139     -179.805016      0.516849426   0.00206355229                0               0                0               0
5.6582              0.0674464968     -179.805453      0.517632188  0.000182063435                0               0                0               0
5.6596              0.0674496041     -179.805795      0.518419236  -0.00172147346                0               0                0               0
5.661               0.0674547561     -179.806041      0.519210589  -0.00364472054                0               0                0               0
5.6624              0.0674619738     -179.806193      0.520006268   -0.0055852872                0               0                0               0
5.6638              0.0674712786     -179.806251      0.520806294  -0.00754073306                0               0                0               0
5.6652              0.0674826928     -179.806217      0.521610692  -0.00950857111                0               0                0               0
5.6666              0.0674962393     -179.806091      0.522419485    -0.011486271                0               0                0               0
5.668               0.0675119417     -179.805875        0.5232327   -0.0134712626                0               0                0               0
5.6694               0.067529824     -179.805571      0.524050364   -0.0154609392                0               0                0               0
5.6708              0.0675499113      -179.80518      0.524872506    -0.017452662                0               0                0               0
5.6722              0.0675722292     -179.804704      0.525699157   -0.0194437633                0               0                0               0
5.6736              0.0675968039     -179.804146      0.526530349   -0.0214315511                0               0                0               0
5.675               0.0676236627     -179.803506      0.527366115   -0.0234133132                0               0                0               0
5.6764              0.0676528332     -179.802787      0.528206491   -0.0253863215                0               0                0               0
5.6778              0.0676843441     -179.801992      0.529051513   -0.0273478369                0               0                0               0
5.6792              0.0677182247     -179.801123      0.529901221   -0.0292951138                0               0                0               0
5.6806              0.0677545054     -179.800183      0.530755654   -0.0312254055                0               0                0               0
5.682                0.067793217     -179.799175      0.531614854   -0.0331359687                0               0                0               0
5.6834              0.0678343914     -179.798101      0.532478866   -0.0350240693                0               0                0               0
5.6848              0.0678780613     -179.796964      0.533347735    -0.036886988                0               0                0               0
5.6862              0.0679242603     -179.795768      0.534221509   -0.0387220253                0               0                0               0
5.6876               0.067973023     -179.794517      0.535100237    -0.040526508                0               0                0               0
5.689               0.0680243847     -179.793213       0.53598397   -0.0422977951                0               0                0               0
5.6904              0.0680783819      -179.79186      0.536872763   -0.0440332837                0               0                0               0
5.6918               0.068135052     -179.790463      0.537766669   -0.0457304157                0               0                0               0
5.6932              0.0681944332     -179.789024      0.538665747   -0.0473866841                0               0                0               0
5.6946              0.0682565651     -179.787549      0.539570056   -0.0489996398                0               0                0               0
5.696               0.0683214881     -179.786041      0.540479656   -0.0505668985                0               0                0               0
5.6974              0.0683892438     -179.784504      0.541394611   -0.0520861476                0               0                0               0
5.6988              0.0684598749     -179.782943      0.542314987   -0.0535551534                0               0                0               0
5.7002              0.0685334254     -179.781362       0.54324085   -0.0549717684                0               0                0               0
5.7016              0.0686099403     -179.779767      0.544172271   -0.0563339387                0               0                0               0
5.703                0.068689466     -179.778161       0.54510932   -0.0576397117                0               0                0               0
5.7044                0.06877205     -179.776549      0.546052071   -0.0588872435                0               0                0               0
5.7058              0.0688577415     -179.774938        0.5470006   -0.0600748067                0               0                0               0
5.7072              0.0689465906      -179.77333      0.547954984   -0.0612007984                0               0                0               0
5.7086              0.0690386491     -179.771732      0.548915303   -0.0622637482                0               0                0               0
5.71                0.0691339703     -179.770149      0.549881638   -0.0632623257                0               0                0               0
5.7114              0.0692326089     -179.768586      0.550854073   -0.0641953488                0               0                0               0
5.7128              0.0693346212     -179.767047      0.551832694   -0.0650617917                0               0                0               0
5.7142              0.0694400652     -179.765539      0.552817587    -0.065860793                0               0                0               0
5.7156              0.0695490007     -179.764067      0.553808843   -0.0665916634                0               0                0               0
5.717                0.069661489     -179.762636      0.554806551   -0.0672538936                0               0                0               0
5.7184              0.0697775934     -179.761251      0.555810806   -0.0678471622                0               0                0               0
5.7198              0.0698973792     -179.759918      0.556821702   -0.0683713437                0               0                0               0
5.7212              0.0700209135     -179.758642      0.557839335   -0.0688265154                0               0                0               0
5.7226              0.0701482658     -179.757428      0.558863802   -0.0692129649                0               0                0               0
5.724               0.0702795073     -179.756282      0.559895204   -0.0695311977                0               0                0               0
5.7254               0.070414712     -179.755208      0.560933641   -0.0697819434                0               0                0               0
5.7268              0.0705539557     -179.754213      0.561979214   -0.0699661623                0               0                0               0
5.7282              0.0706973173     -179.753299      0.563032027   -0.0700850518                0               0                0               0
5.7296              0.0708448777     -179.752474      0.564092184   -0.0701400518                0               0                0               0
5.731               0.0709967208     -179.751741      0.565159791     -0.07013285                0               0                0               0
5.7324              0.0711529334     -179.751105      0.566234953   -0.0700653864                0               0                0               0
5.7338              0.0713136051     -179.750571      0.567317778   -0.0699398575                0               0                0               0
5.7352              0.0714788287     -179.750142      0.568408371   -0.0697587198                0               0                0               0
5.7366              0.0716487002     -179.749823      0.569506842   -0.0695246921                0               0                0               0
5.738               0.0718233192     -179.749617      0.570613297   -0.0692407571                0               0                0               0
5.7394              0.0720027887     -179.749529      0.571727844   -0.0689101629                0               0                0               0
5.7408              0.0721872156     -179.749561      0.572850591   -0.0685364223                0               0                0               0
5.7422              0.0723767107     -179.749716      0.573981645   -0.0681233118                0               0                0               0
5.7436              0.0725713892     -179.749998      0.575121112   -0.0676748692                0               0                0               0
5.745               0.0727713706     -179.750408      0.576269098   -0.0671953897                0               0                0               0
5.7464               0.072976779     -179.750948      0.577425707   -0.0666894211                0               0                0               0
5.7478              0.0731877436      -179.75162      0.578591042    -0.066161757                0               0                0               0
5.7492              0.0734043987     -179.752426      0.579765205   -0.0656174286                0               0                0               0
5.7506               0.073626884     -179.753365      0.580948295    -0.065061695                0               0                0               0
5.752               0.0738553452     -179.754439      0.582140409   -0.0645000313                0               0                0               0
5.7534              0.0740899341     -179.755646      0.583341643   -0.0639381147                0               0                0               0
5.7548              0.0743308089     -179.756987      0.584552088    -0.063381809                0               0                0               0
5.7562              0.0745781348     -179.758461      0.585771833   -0.0628371462                0               0                0               0
5.7576              0.0748320842     -179.760064      0.587000963   -0.0623103064                0               0                0               0
5.759               0.0750928373     -179.761796      0.588239561   -0.0618075946                0               0                0               0
5.7604              0.0753605825     -179.763654      0.589487703   -0.0613354151                0               0                0               0
5.7618              0.0756355169     -179.765633      0.590745463   -0.0609002435                0               0                0               0
5.7632              0.0759178469     -179.767731      0.592012908   -0.0605085953                0               0                0               0
5.7646              0.0762077886     -179.769942      0.593290104   -0.0601669916                0               0                0               0
5.766               0.0765055688     -179.772261      0.594577105   -0.0598819216                0               0                0               0
5.7674               0.076811425     -179.774683      0.595873966   -0.0596598024                0               0                0               0
5.7688               0.077125607     -179.777201      0.597180731   -0.0595069342                0               0                0               0
5.7702              0.0774483769     -179.779809      0.598497439   -0.0594294536                0               0                0               0
5.7716              0.0777800103     -179.782499      0.599824124    -0.059433282                0               0                0               0
5.773               0.0781207971     -179.785262      0.601160809   -0.0595240712                0               0                0               0
5.7744              0.0784710425     -179.788091      0.602507514   -0.0597071448                0               0                0               0
5.7758              0.0788310679     -179.790977      0.603864248   -0.0599874366                0               0                0               0