! TOUCHSTONE file generated by CST MICROWAVE STUDIO
! Date and time: Sun May 18 00:33:45 2025
! Project name: X波段窗片重构-标准输入.cst
! Parameters = {L=6; PIN=3100; a=20; b=10; blendraduis=2.85; d=5; s=4; ta=16.03; tb=12.22; trh=1.69; wr=11.49; wt=0.91}
! Header version: 2018
! Port assignment regex: !\s*Touchstone port\s*([0-9]+)\s*=\s*(CST MWS port|CST DS port)\s*([0-9]+|Zmin|Zmax)\s*\(\"(.*)\"\)(\s*mode\s*([0-9]+))?.*
! Touchstone port assignment:
! Touchstone port 1 = CST MWS port 1 ("")
! Touchstone port 2 = CST MWS port 2 ("")
! S-Parameters are not renormalized. Unphysical impedance of 0 will be written to the file.
# GHz S MA R 0
5.5                  0.106624325     -0.85784228      0.326800738     0.189204193                0               0                0               0
5.5014               0.107186182    -0.863451002      0.326923825     0.186768662                0               0                0               0
5.5028               0.107755073    -0.869120561      0.327041981     0.184473669                0               0                0               0
5.5042               0.108331135    -0.874852824      0.327155095     0.182322139                0               0                0               0
5.5056               0.108914507    -0.880649702      0.327263054     0.180317044                0               0                0               0
5.507                0.109505334     -0.88651315       0.32736574     0.178461404                0               0                0               0
5.5084               0.110103764     -0.89244517      0.327463031      0.17675829                0               0                0               0
5.5098               0.110709949    -0.898447813      0.327554803     0.175210823                0               0                0               0
5.5112               0.111324046    -0.904523176      0.327640928     0.173822181                0               0                0               0
5.5126               0.111946213    -0.910673411      0.327721272     0.172595599                0               0                0               0
5.514                0.112576618     -0.91690072      0.327795701     0.171534374                0               0                0               0
5.5154               0.113215428    -0.923207359      0.327864074     0.170641865                0               0                0               0
5.5168               0.113862817    -0.929595643      0.327926245       0.1699215                0               0                0               0
5.5182               0.114518966    -0.936067943      0.327982066     0.169376776                0               0                0               0
5.5196               0.115184058    -0.942626689      0.328031383     0.169011265                0               0                0               0
5.521                0.115858283    -0.949274376      0.328074037     0.168828619                0               0                0               0
5.5224               0.116541834     -0.95601356      0.328109864      0.16883257                0               0                0               0
5.5238               0.117234914    -0.962846866      0.328138697     0.169026939                0               0                0               0
5.5252               0.117937727    -0.969776986      0.328160359     0.169415637                0               0                0               0
5.5266               0.118650487    -0.976806683      0.328174671     0.170002675                0               0                0               0
5.528                0.119373413    -0.983938796      0.328181449     0.170792164                0               0                0               0
5.5294               0.120106728    -0.991176239      0.328180498     0.171788323                0               0                0               0
5.5308               0.120850667    -0.998522003      0.328171623     0.172995488                0               0                0               0
5.5322               0.121605466     -1.00597917      0.328154617     0.174418112                0               0                0               0
5.5336               0.122371374     -1.01355088      0.328129269      0.17606078                0               0                0               0
5.535                0.123148643     -1.02124041      0.328095361      0.17792821                0               0                0               0
5.5364               0.123937536     -1.02905108      0.328052666     0.180025265                0               0                0               0
5.5378               0.124738323     -1.03698634       0.32800095     0.182356957                0               0                0               0
5.5392               0.125551282     -1.04504971      0.327939972     0.184928463                0               0                0               0
5.5406               0.126376701     -1.05324483       0.32786948     0.187745128                0               0                0               0
5.542                0.127214877     -1.06157546      0.327789217     0.190812479                0               0                0               0
5.5434               0.128066115     -1.07004543      0.327698914     0.194136237                0               0                0               0
5.5448               0.128930733     -1.07865873      0.327598293     0.197722324                0               0                0               0
5.5462               0.129809056     -1.08741945      0.327487067     0.201576881                0               0                0               0
5.5476               0.130701422     -1.09633179      0.327364937     0.205706279                0               0                0               0
5.549                0.131608181     -1.10540011      0.327231596     0.210117135                0               0                0               0
5.5504               0.132529693     -1.11462889      0.327086722     0.214816326                0               0                0               0
5.5518               0.133466331     -1.12402275      0.326929985     0.219811006                0               0                0               0
5.5532                0.13441848     -1.13358646       0.32676104     0.225108625                0               0                0               0
5.5546                0.13538654     -1.14332495       0.32657953      0.23071695                0               0                0               0
5.556                0.136370923     -1.15324331      0.326385086      0.23664408                0               0                0               0
5.5574               0.137372059     -1.16334679      0.326177322     0.242898473                0               0                0               0
5.5588               0.138390388     -1.17364082       0.32595584     0.249488972                0               0                0               0
5.5602               0.139426371       -1.184131      0.325720225     0.256424823                0               0                0               0
5.5616               0.140480482     -1.19482315      0.325470046      0.26371571                0               0                0               0
5.563                0.141553215     -1.20572327      0.325204857     0.271371783                0               0                0               0
5.5644                0.14264508     -1.21683757      0.324924193     0.279403687                0               0                0               0
5.5658               0.143756609     -1.22817249      0.324627569       0.2878226                0               0                0               0
5.5672                0.14488835     -1.23973468      0.324314483     0.296640272                0               0                0               0
5.5686               0.146040876     -1.25153106      0.323984411     0.305869061                0               0                0               0
5.57                 0.147214778     -1.26356876       0.32363681     0.315521979                0               0                0               0
5.5714               0.148410674     -1.27585523      0.323271111     0.325612741                0               0                0               0
5.5728               0.149629204     -1.28839815      0.322886725     0.336155815                0               0                0               0
5.5742               0.150871032     -1.30120551      0.322483037     0.347166475                0               0                0               0
5.5756               0.152136851     -1.31428562      0.322059405     0.358660866                0               0                0               0
5.577                0.153427382     -1.32764708      0.321615161     0.370656067                0               0                0               0
5.5784               0.154743374     -1.34129885      0.321149607      0.38317016                0               0                0               0
5.5798               0.156085606     -1.35525025      0.320662017     0.396222314                0               0                0               0
5.5812               0.157454893     -1.36951096      0.320151631     0.409832862                0               0                0               0
5.5826               0.158852081     -1.38409107      0.319617657     0.424023395                0               0                0               0
5.584                0.160278053     -1.39900107      0.319059267     0.438816864                0               0                0               0
5.5854               0.161733732     -1.41425191      0.318475595      0.45423769                0               0                0               0
5.5868               0.163220077     -1.42985497      0.317865737     0.470311877                0               0                0               0
5.5882               0.164738094     -1.44582215      0.317228747     0.487067151                0               0                0               0
5.5896               0.166288829     -1.46216585      0.316563636     0.504533099                0               0                0               0
5.591                0.167873379     -1.47889902      0.315869368     0.522741324                0               0                0               0
5.5924                0.16949289     -1.49603519      0.315144857     0.541725623                0               0                0               0
5.5938               0.171148559      -1.5135885      0.314388969     0.561522173                0               0                0               0
5.5952                0.17284164     -1.53157372       0.31360051     0.582169741                0               0                0               0
5.5966               0.174573447     -1.55000634      0.312778233     0.603709913                0               0                0               0
5.598                0.176345355     -1.56890254      0.311920827     0.626187352                0               0                0               0
5.5994               0.178158807     -1.58827929      0.311026916     0.649650076                0               0                0               0
5.6008               0.180015316     -1.60815438      0.310095054      0.67414977                0               0                0               0
5.6022               0.181916468     -1.62854647      0.309123725     0.699742135                0               0                0               0
5.6036               0.183863933     -1.64947512      0.308111332     0.726487268                0               0                0               0
5.605                0.185859461     -1.67096092      0.307056196     0.754450091                0               0                0               0
5.6064               0.187904895     -1.69302546      0.305956549     0.783700829                0               0                0               0
5.6078               0.190002173      -1.7156915      0.304810532     0.814315539                0               0                0               0
5.6092               0.192153335     -1.73898294      0.303616181      0.84637671                0               0                0               0
5.6106               0.194360533       -1.762925      0.302371431     0.879973929                0               0                0               0
5.612                0.196626031     -1.78754422      0.301074099     0.915204627                0               0                0               0
5.6134               0.198952221     -1.81286863      0.299721882     0.952174931                0               0                0               0
5.6148               0.201341628      -1.8389278      0.298312346     0.991000612                0               0                0               0
5.6162                0.20379692     -1.86575296      0.296842921      1.03180816                0               0                0               0
5.6176               0.206320915     -1.89337715      0.295310885      1.07473602                0               0                0               0
5.619                  0.2089166     -1.92183533      0.293713358      1.11993595                0               0                0               0
5.6204               0.211587135     -1.95116452      0.292047289      1.16757464                0               0                0               0
5.6218               0.214335871     -1.98140396      0.290309443      1.21783548                0               0                0               0
5.6232               0.217166363     -2.01259527      0.288496388      1.27092064                0               0                0               0
5.6246               0.220082385     -2.04478269       0.28660448      1.32705346                0               0                0               0
5.626                0.223087949      -2.0780132      0.284629848      1.38648116                0               0                0               0
5.6274               0.226187324     -2.11233681      0.282568372      1.44947803                0               0                0               0
5.6288               0.229385053     -2.14780679      0.280415671      1.51634906                0               0                0               0
5.6302                0.23268598     -2.18447991      0.278167073      1.58743422                0               0                0               0
5.6316               0.236095276     -2.22241678      0.275817602      1.66311344                0               0                0               0
5.633                0.239618462     -2.26168215      0.273361943      1.74381248                0               0                0               0
5.6344               0.243261442      -2.3023453       0.27079442      1.83000972                0               0                0               0
5.6358               0.247030538     -2.34448041      0.268108966      1.92224436                0               0                0               0
5.6372               0.250932526     -2.38816702      0.265299086      2.02112604                0               0                0               0
5.6386               0.254974676     -2.43349052      0.262357823      2.12734632                0               0                0               0
5.64                 0.259164804     -2.48054271      0.259277719       2.2416925                0               0                0               0
5.6414               0.263511315     -2.52942238      0.256050767      2.36506423                0               0                0               0
5.6428               0.268023269     -2.58023604      0.252668366      2.49849368                0               0                0               0
5.6442               0.272710437     -2.63309864      0.249121267      2.64317009                0               0                0               0
5.6456               0.277583382     -2.68813445      0.245399515      2.80046995                0               0                0               0
5.647                 0.28265353     -2.74547802      0.241492382      2.97199425                0               0                0               0
5.6484               0.287933268     -2.80527526      0.237388303       3.1596149                0               0                0               0
5.6498               0.293436046     -2.86768465      0.233074797      3.36553286                0               0                0               0
5.6512               0.299176489     -2.93287865      0.228538387      3.59235181                0               0                0               0
5.6526               0.305170533     -3.00104524      0.223764512      3.84317207                0               0                0               0
5.654                0.311435571     -3.07238974      0.218737435      4.12171177                0               0                0               0
5.6554               0.317990628     -3.14713681      0.213440153      4.43246465                0               0                0               0
5.6568               0.324856552      -3.2255328      0.207854296        4.780908                0               0                0               0
5.6582                0.33205624     -3.30784845      0.201960049      5.17378018                0               0                0               0
5.6596               0.339614895     -3.39438191      0.195736072      5.61945601                0               0                0               0
5.661                0.347560324     -3.48546234      0.189159471      6.12846218                0               0                0               0
5.6624                0.35592328     -3.58145406      0.182205815      6.71419668                0               0                0               0
5.6638               0.364737866     -3.68276125      0.174849261      7.39395121                0               0                0               0
5.6652                  0.374042     -3.78983369      0.167062866      8.19039343                0               0                0               0
5.6666               0.383877962     -3.90317322      0.158819197      9.13376343                0               0                0               0
5.668                0.394293043     -4.02334154      0.150091488      10.2652084                0               0                0               0
5.6694               0.405340302     -4.15096938      0.140855744       11.641981                0               0                0               0
5.6708                0.41707947     -4.28676738      0.131094561      13.3457785                0               0                0               0
5.6722               0.429578039     -4.43153912      0.120804143      15.4965286                0               0                0               0
5.6736               0.442912547     -4.58619678       0.11000751      18.2758529                0               0                0               0
5.675                0.457170151     -4.75178003     0.0987801343      21.9679116                0               0                0               0
5.6764               0.472450521     -4.92947906     0.0873015776      27.0304623                0               0                0               0
5.6778                0.48886816     -5.12066272     0.0759622675      34.2094682                0               0                0               0
5.6792               0.506555258     -5.32691317     0.0655803101      44.6615227                0               0                0               0
5.6806               0.525665227       -5.550069     0.0577667511      59.7568657                0               0                0               0
5.682                0.546377106     -5.79227904     0.0551145845      79.5468048                0               0                0               0
5.6834               0.568901116     -6.05607045     0.0600579043       100.39955                0               0                0               0
5.6848               0.593485708      -6.3444353     0.0728674741      117.512643                0               0                0               0
5.6862               0.620426594     -6.66094201     0.0921467985      129.599598                0               0                0               0
5.6876               0.650078443     -7.00988037      0.116640766      137.792016                0               0                0               0
5.689                0.682870204     -7.39645214      0.145788435      143.398708                0               0                0               0
5.6904                0.71932539     -7.82702528      0.179572771      147.317444                0               0                0               0
5.6918               0.760089322     -8.30947732      0.218350486      150.100166                0               0                0               0
5.6932               0.805966204     -8.85366657      0.262776089      152.082001                0               0                0               0
5.6946               0.857970365     -9.47208961      0.313796891      153.468428                0               0                0               0
5.696                0.917398245     -10.1808159      0.372699161      154.385635                0               0                0               0
5.6974               0.985931355      -11.000844      0.441202187       154.90852                0               0                0               0
5.6988                1.06578635     -11.9601145      0.521611132      155.075748                0               0                0               0
5.7002                1.15993823     -13.0965752      0.617054404      154.896886                0               0                0               0
5.7016                1.27245915      -14.462981      0.731852232      154.353893                0               0                0               0
5.703                 1.40904289     -16.1346488      0.872097062      153.397359                0               0                0               0
5.7044                1.57782886      -18.222416       1.04658266      151.936149                0               0                0               0
5.7058                1.79069911     -20.8950782       1.26830515      149.816722                0               0                0               0
5.7072                2.06524813     -24.4195585       1.55684718       146.78418                0               0                0               0
5.7086                2.42731897     -29.2343599       1.94179268      142.409723                0               0                0               0
5.71                   2.9118659     -36.0807367       2.46548576      135.960248                0               0                0               0
5.7114                3.54954952     -46.1944251       3.17336309      126.207442                0               0                0               0
5.7128                4.29131431     -61.3061468       4.04218874      111.427909                0               0                0               0
5.7142                4.82050351     -82.2024729       4.77511746      90.8399364                0               0                0               0
5.7156                4.66897108     -105.216933       4.85585955       68.106107                0               0                0               0
5.717                 3.97972823       -124.1942       4.33858319      49.3786057                0               0                0               0
5.7184                3.24165713     -137.343023       3.69844798      36.4555453                0               0                0               0
5.7198                2.65100998     -146.125155       3.16072175      27.8813656                0               0                0               0
5.7212                2.20926157     -152.143291        2.7489511      22.0562991                0               0                0               0
5.7226                1.87874328     -156.436903       2.43670422      17.9424875                0               0                0               0
5.724                 1.62657005     -159.620911       2.19651634      14.9262301                0               0                0               0
5.7254                1.42965992     -162.061905       2.00801284       12.641993                0               0                0               0
5.7268                 1.2724727     -163.985982       1.85708253      10.8646318                0               0                0               0
5.7282                1.14450137     -165.538075       1.73401566      9.45007699                0               0                0               0
5.7296                1.03851011      -166.81455       1.63204409      8.30274013                0               0                0               0
5.731                0.949403978     -167.881626       1.54635963      7.35710627                0               0                0               0
5.7324               0.873514763     -168.786144       1.47347666      6.56697179                0               0                0               0
5.7338               0.808145514     -169.562088       1.41081848      5.89892786                0               0                0               0
5.7352               0.751274911     -170.234671       1.35644531      5.32828328                0               0                0               0
5.7366               0.701361364     -170.822969       1.30887224      4.83643585                0               0                0               0
5.738                0.657210492     -171.341671       1.26694523      4.40913143                0               0                0               0
5.7394                0.61788366     -171.802258       1.22975497      4.03528249                0               0                0               0
5.7408               0.582633667     -172.213834       1.19657594      3.70614864                0               0                0               0
5.7422               0.550858724     -172.583706       1.16682266        3.414757                0               0                0               0
5.7436               0.522068986     -172.917807        1.1400178      3.15548487                0               0                0               0
5.745                0.495861856        -173.221       1.11576845      2.92375431                0               0                0               0
5.7464               0.471903501     -173.497312       1.09374845      2.71580547                0               0                0               0
5.7478               0.449914854     -173.750107       1.07368484       2.5285259                0               0                0               0
5.7492               0.429660879     -173.982212       1.05534757      2.35932068                0               0                0               0
5.7506                0.41094225     -174.196027       1.03854143      2.20601225                0               0                0               0
5.752                0.393588847     -174.393599       1.02309972      2.06676251                0               0                0               0
5.7534               0.377454612     -174.576687       1.00887933      1.94001162                0               0                0               0
5.7548               0.362413452      -174.74681      0.995756693      1.82442944                0               0                0               0
5.7562               0.348355946      -174.90529      0.983624643      1.71887669                0               0                0               0
5.7576               0.335186686     -175.053281      0.972389782      1.62237373                0               0                0               0
5.759                0.322822103     -175.191797      0.961970386      1.53407514                0               0                0               0
5.7604                0.31118869     -175.321734      0.952294668      1.45324896                0               0                0               0
5.7618               0.300221527     -175.443887      0.943299343      1.37925965                0               0                0               0
5.7632               0.289863066     -175.558964      0.934928439      1.31155391                0               0                0               0
5.7646               0.280062109       -175.6676      0.927132306      1.24964887                0               0                0               0
5.766                0.270772953     -175.770368      0.919866779      1.19312224                0               0                0               0
5.7674               0.261954671     -175.867784       0.91309248       1.1416039                0               0                0               0
5.7688               0.253570497     -175.960317      0.906774221      1.09476883                0               0                0               0
5.7702               0.245587309     -176.048398      0.900880499      1.05233097                0               0                0               0
5.7716               0.237975182     -176.132421      0.895383067      1.01403802                0               0                0               0
5.773                0.230707009     -176.212748      0.890256565      0.97966683                0               0                0               0
5.7744                0.22375817     -176.289718      0.885478202     0.949019389                0               0                0               0
5.7758               0.217106247     -176.363643      0.881027483     0.921919289                0               0                0               0