! TOUCHSTONE file generated by CST MICROWAVE STUDIO
! Date and time: Fri Apr 25 09:59:44 2025
! Project name: X²¨¶ÎÐý×ª·ÖÎö.cst
! Parameters = {realphi=45; phi=405; theta=3; blendraduis=2.84566; L=6; Pin=1; a=20; b=10; blendFmax=0.02; blendradius=2.85; d=5; s=4; ta=16.03; tb=10.61; totaltime=10; trh=1.69; wr=11.49; wt=0.91}
! Header version: 2018
! Port assignment regex: !\s*Touchstone port\s*([0-9]+)\s*=\s*(CST MWS port|CST DS port)\s*([0-9]+|Zmin|Zmax)\s*\(\"(.*)\"\)(\s*mode\s*([0-9]+))?.*
! Touchstone port assignment:
! Touchstone port 1 = CST MWS port 1 ("")
! Touchstone port 2 = CST MWS port 2 ("")
! S-Parameters are not renormalized. Unphysical impedance of 0 will be written to the file.
# GHz S MA R 0
6                   0.0438062322      66.1843271      0.997076868     -23.2455278                0               0                0               0
6.0008              0.0438300897      66.1032589      0.997096127     -23.3239235                0               0                0               0
6.0016               0.043853967      66.0219842      0.997115299      -23.402255                0               0                0               0
6.0024              0.0438778639       65.940502      0.997134382     -23.4805226                0               0                0               0
6.0032              0.0439017804      65.8588117      0.997153378     -23.5587262                0               0                0               0
6.004               0.0439257163      65.7769126      0.997172287     -23.6368659                0               0                0               0
6.0048              0.0439496715      65.6948038      0.997191108     -23.7149417                0               0                0               0
6.0056              0.0439736458      65.6124846      0.997209844     -23.7929538                0               0                0               0
6.0064               0.043997639      65.5299542      0.997228492     -23.8709023                0               0                0               0
6.0072              0.0440216512      65.4472119      0.997247055      -23.948787                0               0                0               0
6.008                0.044045682      65.3642569      0.997265532     -24.0266083                0               0                0               0
6.0088              0.0440697313      65.2810885      0.997283923      -24.104366                0               0                0               0
6.0096              0.0440937991      65.1977058      0.997302229     -24.1820603                0               0                0               0
6.0104              0.0441178851      65.1141081       0.99732045     -24.2596912                0               0                0               0
6.0112              0.0441419892      65.0302946      0.997338586     -24.3372588                0               0                0               0
6.012               0.0441661112      64.9462645      0.997356637     -24.4147632                0               0                0               0
6.0128              0.0441902511       64.862017      0.997374605     -24.4922044                0               0                0               0
6.0136              0.0442144085      64.7775513      0.997392488     -24.5695826                0               0                0               0
6.0144              0.0442385834      64.6928667      0.997410288     -24.6468977                0               0                0               0
6.0152              0.0442627757      64.6079624      0.997428004     -24.7241498                0               0                0               0
6.016                0.044286985      64.5228375      0.997445637      -24.801339                0               0                0               0
6.0168              0.0443112113      64.4374912      0.997463187     -24.8784654                0               0                0               0
6.0176              0.0443354544      64.3519228      0.997480655      -24.955529                0               0                0               0
6.0184              0.0443597141      64.2661314       0.99749804     -25.0325299                0               0                0               0
6.0192              0.0443839902      64.1801162      0.997515343     -25.1094682                0               0                0               0
6.02                0.0444082826      64.0938764      0.997532564      -25.186344                0               0                0               0
6.0208               0.044432591      64.0074112      0.997549704     -25.2631572                0               0                0               0
6.0216              0.0444569154      63.9207197      0.997566762      -25.339908                0               0                0               0
6.0224              0.0444812555      63.8338012      0.997583739     -25.4165964                0               0                0               0
6.0232               0.044505611      63.7466548      0.997600636     -25.4932225                0               0                0               0
6.024               0.0445299819      63.6592797      0.997617452     -25.5697864                0               0                0               0
6.0248               0.044554368       63.571675      0.997634187     -25.6462881                0               0                0               0
6.0256              0.0445787689      63.4838399      0.997650843     -25.7227277                0               0                0               0
6.0264              0.0446031846      63.3957735      0.997667418     -25.7991052                0               0                0               0
6.0272              0.0446276148      63.3074751      0.997683915     -25.8754208                0               0                0               0
6.028               0.0446520594      63.2189437      0.997700332     -25.9516745                0               0                0               0
6.0288              0.0446765181      63.1301786       0.99771667     -26.0278664                0               0                0               0
6.0296              0.0447009906      63.0411788      0.997732929     -26.1039965                0               0                0               0
6.0304              0.0447254769      62.9519435       0.99774911     -26.1800649                0               0                0               0
6.0312              0.0447499767      62.8624719      0.997765212     -26.2560716                0               0                0               0
6.032               0.0447744897      62.7727631      0.997781237     -26.3320168                0               0                0               0
6.0328              0.0447990157      62.6828161      0.997797183     -26.4079005                0               0                0               0
6.0336              0.0448235546      62.5926302      0.997813053     -26.4837227                0               0                0               0
6.0344               0.044848106      62.5022045      0.997828845     -26.5594836                0               0                0               0
6.0352              0.0448726698       62.411538       0.99784456     -26.6351832                0               0                0               0
6.036               0.0448972457        62.32063      0.997860198     -26.7108215                0               0                0               0
6.0368              0.0449218336      62.2294795       0.99787576     -26.7863986                0               0                0               0
6.0376               0.044946433      62.1380856      0.997891246     -26.8619147                0               0                0               0
6.0384              0.0449710438      62.0464475      0.997906656     -26.9373697                0               0                0               0
6.0392              0.0449956659      61.9545642       0.99792199     -27.0127638                0               0                0               0
6.04                0.0450202988      61.8624349      0.997937249     -27.0880969                0               0                0               0
6.0408              0.0450449423      61.7700587      0.997952432     -27.1633692                0               0                0               0
6.0416              0.0450695963      61.6774346       0.99796754     -27.2385807                0               0                0               0
6.0424              0.0450942604      61.5845617      0.997982574     -27.3137316                0               0                0               0
6.0432              0.0451189344      61.4914392      0.997997533     -27.3888218                0               0                0               0
6.044                0.045143618      61.3980661      0.998012418     -27.4638514                0               0                0               0
6.0448              0.0451683109      61.3044415      0.998027229     -27.5388205                0               0                0               0
6.0456               0.045193013      61.2105645      0.998041966     -27.6137292                0               0                0               0
6.0464              0.0452177238      61.1164341       0.99805663     -27.6885775                0               0                0               0
6.0472              0.0452424431      61.0220495       0.99807122     -27.7633655                0               0                0               0
6.048               0.0452671707      60.9274097      0.998085738     -27.8380932                0               0                0               0
6.0488              0.0452919062      60.8325137      0.998100182     -27.9127608                0               0                0               0
6.0496              0.0453166494      60.7373607      0.998114554     -27.9873683                0               0                0               0
6.0504                 0.0453414      60.6419496      0.998128854     -28.0619158                0               0                0               0
6.0512              0.0453661576      60.5462796      0.998143082     -28.1364032                0               0                0               0
6.052               0.0453909221      60.4503497      0.998157238     -28.2108308                0               0                0               0
6.0528              0.0454156929      60.3541589      0.998171322     -28.2851986                0               0                0               0
6.0536                0.04544047      60.2577064      0.998185335     -28.3595065                0               0                0               0
6.0544              0.0454652529       60.160991      0.998199277     -28.4337548                0               0                0               0
6.0552              0.0454900414      60.0640119      0.998213148     -28.5079434                0               0                0               0
6.056                0.045514835      59.9667681      0.998226949     -28.5820724                0               0                0               0
6.0568              0.0455396336      59.8692587      0.998240679      -28.656142                0               0                0               0
6.0576              0.0455644367      59.7714826      0.998254339     -28.7301521                0               0                0               0
6.0584              0.0455892441      59.6734389      0.998267929     -28.8041028                0               0                0               0
6.0592              0.0456140554      59.5751266      0.998281449     -28.8779942                0               0                0               0
6.06                0.0456388703      59.4765447        0.9982949     -28.9518264                0               0                0               0
6.0608              0.0456636884      59.3776923      0.998308282     -29.0255994                0               0                0               0
6.0616              0.0456885094      59.2785683      0.998321594     -29.0993133                0               0                0               0
6.0624              0.0457133329      59.1791718      0.998334838     -29.1729682                0               0                0               0
6.0632              0.0457381586      59.0795017      0.998348014      -29.246564                0               0                0               0
6.064               0.0457629862      58.9795571      0.998361121      -29.320101                0               0                0               0
6.0648              0.0457878151      58.8793369       0.99837416     -29.3935791                0               0                0               0
6.0656              0.0458126452      58.7788402      0.998387131     -29.4669985                0               0                0               0
6.0664               0.045837476       58.678066      0.998400035     -29.5403592                0               0                0               0
6.0672              0.0458623072      58.5770132      0.998412871     -29.6136612                0               0                0               0
6.068               0.0458871383      58.4756808      0.998425641     -29.6869046                0               0                0               0
6.0688               0.045911969      58.3740677      0.998438343     -29.7600895                0               0                0               0
6.0696              0.0459367989      58.2721731      0.998450979      -29.833216                0               0                0               0
6.0704              0.0459616277      58.1699958      0.998463548     -29.9062841                0               0                0               0
6.0712              0.0459864548      58.0675348      0.998476051     -29.9792939                0               0                0               0
6.072               0.0460112799      57.9647891      0.998488488     -30.0522454                0               0                0               0
6.0728              0.0460361026      57.8617576      0.998500859     -30.1251388                0               0                0               0
6.0736              0.0460609226      57.7584393      0.998513165     -30.1979741                0               0                0               0
6.0744              0.0460857393      57.6548331      0.998525405     -30.2707513                0               0                0               0
6.0752              0.0461105523      57.5509381      0.998537581     -30.3434705                0               0                0               0
6.076               0.0461353613      57.4467531      0.998549691     -30.4161318                0               0                0               0
6.0768              0.0461601658      57.3422772      0.998561737     -30.4887353                0               0                0               0
6.0776              0.0461849653      57.2375091      0.998573718      -30.561281                0               0                0               0
6.0784              0.0462097595       57.132448      0.998585635      -30.633769                0               0                0               0
6.0792              0.0462345478      57.0270926      0.998597488     -30.7061993                0               0                0               0
6.08                0.0462593299       56.921442      0.998609278      -30.778572                0               0                0               0
6.0808              0.0462841053      56.8154951      0.998621004     -30.8508873                0               0                0               0
6.0816              0.0463088735      56.7092508      0.998632666     -30.9231451                0               0                0               0
6.0824               0.046333634       56.602708      0.998644266     -30.9953455                0               0                0               0
6.0832              0.0463583865      56.4958656      0.998655802     -31.0674885                0               0                0               0
6.084               0.0463831303      56.3887226      0.998667276     -31.1395744                0               0                0               0
6.0848              0.0464078651      56.2812779      0.998678688      -31.211603                0               0                0               0
6.0856              0.0464325903      56.1735303      0.998690037     -31.2835745                0               0                0               0
6.0864              0.0464573055      56.0654788      0.998701324      -31.355489                0               0                0               0
6.0872              0.0464820101      55.9571223      0.998712549     -31.4273465                0               0                0               0
6.088               0.0465067037      55.8484597      0.998723713      -31.499147                0               0                0               0
6.0888              0.0465313858      55.7394898      0.998734816     -31.5708907                0               0                0               0
6.0896              0.0465560558      55.6302116      0.998745857     -31.6425776                0               0                0               0
6.0904              0.0465807132       55.520624      0.998756837     -31.7142078                0               0                0               0
6.0912              0.0466053575      55.4107257      0.998767757     -31.7857813                0               0                0               0
6.092               0.0466299882      55.3005158      0.998778616     -31.8572982                0               0                0               0
6.0928              0.0466546048      55.1899931      0.998789415     -31.9287586                0               0                0               0
6.0936              0.0466792066      55.0791565      0.998800154     -32.0001626                0               0                0               0
6.0944              0.0467037932      54.9680048      0.998810832     -32.0715101                0               0                0               0
6.0952               0.046728364      54.8565369      0.998821451     -32.1428013                0               0                0               0
6.096               0.0467529185      54.7447517      0.998832011     -32.2140363                0               0                0               0
6.0968               0.046777456       54.632648      0.998842512      -32.285215                0               0                0               0
6.0976               0.046801976      54.5202247      0.998852953     -32.3563376                0               0                0               0
6.0984               0.046826478      54.4074807      0.998863335     -32.4274042                0               0                0               0
6.0992              0.0468509614      54.2944147      0.998873659     -32.4984147                0               0                0               0
6.1                 0.0468754255      54.1810257      0.998883925     -32.5693693                0               0                0               0
6.1008              0.0468998698      54.0673125      0.998894132     -32.6402681                0               0                0               0
6.1016              0.0469242937       53.953274      0.998904281      -32.711111                0               0                0               0
6.1024              0.0469486966      53.8389089      0.998914373     -32.7818982                0               0                0               0
6.1032              0.0469730778      53.7242161      0.998924407     -32.8526297                0               0                0               0
6.104               0.0469974367      53.6091945      0.998934383     -32.9233056                0               0                0               0
6.1048              0.0470217728      53.4938428      0.998944303      -32.993926                0               0                0               0
6.1056              0.0470460854        53.37816      0.998954165     -33.0644908                0               0                0               0
6.1064              0.0470703738      53.2621448       0.99896397     -33.1350003                0               0                0               0
6.1072              0.0470946375       53.145796      0.998973719     -33.2054544                0               0                0               0
6.108               0.0471188757      53.0291125      0.998983412     -33.2758533                0               0                0               0
6.1088              0.0471430878       52.912093      0.998993048     -33.3461969                0               0                0               0
6.1096              0.0471672731      52.7947365      0.999002629     -33.4164853                0               0                0               0
6.1104               0.047191431      52.6770416      0.999012153     -33.4867187                0               0                0               0
6.1112              0.0472155608      52.5590073      0.999021622     -33.5568971                0               0                0               0
6.112               0.0472396618      52.4406323      0.999031036     -33.6270205                0               0                0               0
6.1128              0.0472637333      52.3219153      0.999040394      -33.697089                0               0                0               0
6.1136              0.0472877747      52.2028553      0.999049698     -33.7671026                0               0                0               0
6.1144              0.0473117851       52.083451      0.999058946     -33.8370615                0               0                0               0
6.1152               0.047335764      51.9637012      0.999068141     -33.9069658                0               0                0               0
6.116               0.0473597105      51.8436047       0.99907728     -33.9768153                0               0                0               0
6.1168               0.047383624      51.7231602      0.999086366     -34.0466104                0               0                0               0
6.1176              0.0474075038      51.6023665      0.999095397     -34.1163509                0               0                0               0
6.1184               0.047431349      51.4812225      0.999104375     -34.1860369                0               0                0               0
6.1192               0.047455159       51.359727      0.999113299     -34.2556686                0               0                0               0
6.12                0.0474789329      51.2378786       0.99912217      -34.325246                0               0                0               0
6.1208              0.0475026701      51.1156761      0.999130987     -34.3947692                0               0                0               0
6.1216              0.0475263697      50.9931184      0.999139752     -34.4642381                0               0                0               0
6.1224               0.047550031      50.8702041      0.999148463      -34.533653                0               0                0               0
6.1232              0.0475736532      50.7469322      0.999157122     -34.6030138                0               0                0               0
6.124               0.0475972355      50.6233012      0.999165729     -34.6723206                0               0                0               0
6.1248              0.0476207771        50.49931      0.999174283     -34.7415735                0               0                0               0
6.1256              0.0476442772      50.3749574      0.999182785     -34.8107726                0               0                0               0
6.1264               0.047667735       50.250242      0.999191236     -34.8799178                0               0                0               0
6.1272              0.0476911496      50.1251627      0.999199634     -34.9490093                0               0                0               0
6.128               0.0477145203      49.9997182      0.999207981     -35.0180472                0               0                0               0
6.1288              0.0477378462      49.8739072      0.999216277     -35.0870315                0               0                0               0
6.1296              0.0477611264      49.7477285      0.999224522     -35.1559622                0               0                0               0
6.1304              0.0477843601      49.6211808      0.999232715     -35.2248394                0               0                0               0
6.1312              0.0478075464      49.4942629      0.999240858     -35.2936633                0               0                0               0
6.132               0.0478306845      49.3669735      0.999248951     -35.3624338                0               0                0               0
6.1328              0.0478537735      49.2393114      0.999256993      -35.431151                0               0                0               0
6.1336              0.0478768124      49.1112752      0.999264985      -35.499815                0               0                0               0
6.1344              0.0478998005      48.9828637      0.999272926     -35.5684259                0               0                0               0
6.1352              0.0479227368      48.8540757      0.999280818     -35.6369837                0               0                0               0
6.136               0.0479456203      48.7249099      0.999288661     -35.7054885                0               0                0               0
6.1368              0.0479684502      48.5953649      0.999296453     -35.7739403                0               0                0               0
6.1376              0.0479912256      48.4654396      0.999304197     -35.8423392                0               0                0               0
6.1384              0.0480139454      48.3351326      0.999311891     -35.9106853                0               0                0               0
6.1392              0.0480366089      48.2044426      0.999319537     -35.9789786                0               0                0               0
6.14                0.0480592149      48.0733685      0.999327134     -36.0472192                0               0                0               0
6.1408              0.0480817626      47.9419088      0.999334682     -36.1154072                0               0                0               0
6.1416              0.0481042509      47.8100624      0.999342182     -36.1835426                0               0                0               0
6.1424               0.048126679      47.6778279      0.999349634     -36.2516255                0               0                0               0
6.1432              0.0481490457       47.545204      0.999357037      -36.319656                0               0                0               0
6.144               0.0481713502      47.4121895      0.999364393      -36.387634                0               0                0               0
6.1448              0.0481935914       47.278783      0.999371702     -36.4555598                0               0                0               0
6.1456              0.0482157682      47.1449833      0.999378962     -36.5234333                0               0                0               0
6.1464              0.0482378798      47.0107891      0.999386176     -36.5912546                0               0                0               0
6.1472              0.0482599249       46.876199      0.999393342     -36.6590237                0               0                0               0
6.148               0.0482819027      46.7412119      0.999400461     -36.7267409                0               0                0               0
6.1488               0.048303812      46.6058263      0.999407534      -36.794406                0               0                0               0
6.1496              0.0483256518       46.470041       0.99941456     -36.8620191                0               0                0               0
6.1504               0.048347421      46.3338547      0.999421539     -36.9295804                0               0                0               0
6.1512              0.0483691186      46.1972661      0.999428473     -36.9970899                0               0                0               0
6.152               0.0483907434      46.0602739       0.99943536     -37.0645476                0               0                0               0
6.1528              0.0484122944      45.9228767      0.999442201     -37.1319537                0               0                0               0
6.1536              0.0484337704      45.7850733      0.999448997     -37.1993081                0               0                0               0
6.1544              0.0484551703      45.6468624      0.999455747      -37.266611                0               0                0               0
6.1552              0.0484764931      45.5082427      0.999462452     -37.3338623                0               0                0               0
6.156               0.0484977375      45.3692128      0.999469111     -37.4010623                0               0                0               0
6.1568              0.0485189025      45.2297715      0.999475726     -37.4682108                0               0                0               0