! TOUCHSTONE file generated by CST MICROWAVE STUDIO
! Date and time: Fri Apr 25 09:59:46 2025
! Project name: X²¨¶ÎÐý×ª·ÖÎö.cst
! Parameters = {realphi=0; phi=360; theta=0; blendraduis=2.84566; L=6; Pin=1; a=20; b=10; blendFmax=0.02; blendradius=2.85; d=5; s=4; ta=16.03; tb=10.61; totaltime=10; trh=1.69; wr=11.49; wt=0.91}
! Header version: 2018
! Port assignment regex: !\s*Touchstone port\s*([0-9]+)\s*=\s*(CST MWS port|CST DS port)\s*([0-9]+|Zmin|Zmax)\s*\(\"(.*)\"\)(\s*mode\s*([0-9]+))?.*
! Touchstone port assignment:
! Touchstone port 1 = CST MWS port 1 ("")
! Touchstone port 2 = CST MWS port 2 ("")
! S-Parameters are not renormalized. Unphysical impedance of 0 will be written to the file.
# GHz S MA R 0
6                   0.0480319811      63.5175695      0.996871509     -23.1133714                0               0                0               0
6.0008              0.0477215202      63.3945313      0.996917188      -23.217963                0               0                0               0
6.0016              0.0474130527      63.2720027      0.996962049     -23.3222332                0               0                0               0
6.0024              0.0471065611      63.1499782      0.997006104     -23.4261843                0               0                0               0
6.0032              0.0468020282      63.0284525      0.997049366     -23.5298187                0               0                0               0
6.004               0.0464994368      62.9074204      0.997091849     -23.6331387                0               0                0               0
6.0048              0.0461987702      62.7868765      0.997133565     -23.7361466                0               0                0               0
6.0056              0.0459000115      62.6668158      0.997174526     -23.8388447                0               0                0               0
6.0064              0.0456031442       62.547233      0.997214745     -23.9412352                0               0                0               0
6.0072              0.0453081519      62.4281231      0.997254234     -24.0433203                0               0                0               0
6.008               0.0450150183      62.3094812      0.997293004     -24.1451023                0               0                0               0
6.0088              0.0447237274      62.1913022      0.997331068     -24.2465832                0               0                0               0
6.0096              0.0444342633      62.0735813      0.997368436     -24.3477654                0               0                0               0
6.0104              0.0441466102      61.9563135       0.99740512     -24.4486509                0               0                0               0
6.0112              0.0438607525      61.8394941      0.997441131     -24.5492418                0               0                0               0
6.012               0.0435766748      61.7231183       0.99747648     -24.6495403                0               0                0               0
6.0128              0.0432943619      61.6071813      0.997511177     -24.7495485                0               0                0               0
6.0136              0.0430137985      61.4916785      0.997545234     -24.8492683                0               0                0               0
6.0144              0.0427349699      61.3766054      0.997578661     -24.9487018                0               0                0               0
6.0152               0.042457861      61.2619572      0.997611467     -25.0478511                0               0                0               0
6.016               0.0421824574      61.1477294      0.997643664     -25.1467182                0               0                0               0
6.0168              0.0419087444      61.0339176       0.99767526      -25.245305                0               0                0               0
6.0176              0.0416367078      60.9205174      0.997706266     -25.3436135                0               0                0               0
6.0184              0.0413663332      60.8075242      0.997736691     -25.4416457                0               0                0               0
6.0192              0.0410976066      60.6949338      0.997766545     -25.5394035                0               0                0               0
6.02                0.0408305141      60.5827417      0.997795836     -25.6368888                0               0                0               0
6.0208              0.0405650419      60.4709438      0.997824575     -25.7341034                0               0                0               0
6.0216              0.0403011763      60.3595358       0.99785277     -25.8310494                0               0                0               0
6.0224              0.0400389038      60.2485134      0.997880429     -25.9277285                0               0                0               0
6.0232               0.039778211      60.1378725      0.997907563     -26.0241425                0               0                0               0
6.024               0.0395190848       60.027609      0.997934178     -26.1202933                0               0                0               0
6.0248              0.0392615119      59.9177188      0.997960284     -26.2161828                0               0                0               0
6.0256              0.0390054794      59.8081977      0.997985889     -26.3118126                0               0                0               0
6.0264              0.0387509745      59.6990418         0.998011     -26.4071846                0               0                0               0
6.0272              0.0384979844      59.5902472      0.998035627     -26.5023006                0               0                0               0
6.028               0.0382464966      59.4818097      0.998059777     -26.5971622                0               0                0               0
6.0288              0.0379964986      59.3737256      0.998083458     -26.6917712                0               0                0               0
6.0296               0.037747978      59.2659909      0.998106677     -26.7861293                0               0                0               0
6.0304              0.0375009226      59.1586018      0.998129442     -26.8802382                0               0                0               0
6.0312              0.0372553204      59.0515544      0.998151761     -26.9740996                0               0                0               0
6.032               0.0370111593       58.944845       0.99817364     -27.0677152                0               0                0               0
6.0328              0.0367684276      58.8384697      0.998195088     -27.1610865                0               0                0               0
6.0336              0.0365271135      58.7324249       0.99821611     -27.2542153                0               0                0               0
6.0344              0.0362872053      58.6267069      0.998236714     -27.3471031                0               0                0               0
6.0352              0.0360486916      58.5213119      0.998256907     -27.4397516                0               0                0               0
6.036                0.035811561      58.4162363      0.998276695     -27.5321623                0               0                0               0
6.0368              0.0355758023      58.3114765      0.998296085     -27.6243368                0               0                0               0
6.0376              0.0353414042       58.207029      0.998315085     -27.7162768                0               0                0               0
6.0384              0.0351083557      58.1028901      0.998333699     -27.8079836                0               0                0               0
6.0392              0.0348766459      57.9990562      0.998351935     -27.8994589                0               0                0               0
6.04                 0.034646264       57.895524      0.998369798     -27.9907042                0               0                0               0
6.0408              0.0344171991      57.7922899      0.998387295      -28.081721                0               0                0               0
6.0416              0.0341894408      57.6893504      0.998404432     -28.1725107                0               0                0               0
6.0424              0.0339629786       57.586702      0.998421215      -28.263075                0               0                0               0
6.0432              0.0337378019      57.4843415      0.998437649     -28.3534151                0               0                0               0
6.044               0.0335139005      57.3822652      0.998453741     -28.4435326                0               0                0               0
6.0448              0.0332912642        57.28047      0.998469496      -28.533429                0               0                0               0
6.0456              0.0330698829      57.1789524       0.99848492     -28.6231056                0               0                0               0
6.0464              0.0328497466      57.0777091      0.998500017     -28.7125639                0               0                0               0
6.0472              0.0326308454      56.9767368      0.998514794     -28.8018053                0               0                0               0
6.048               0.0324131695      56.8760322      0.998529256     -28.8908311                0               0                0               0
6.0488              0.0321967092       56.775592      0.998543408     -28.9796427                0               0                0               0
6.0496              0.0319814548      56.6754129      0.998557255     -29.0682416                0               0                0               0
6.0504              0.0317673969      56.5754917      0.998570803      -29.156629                0               0                0               0
6.0512               0.031554526      56.4758253      0.998584055     -29.2448064                0               0                0               0
6.052               0.0313428328      56.3764103      0.998597018      -29.332775                0               0                0               0
6.0528               0.031132308      56.2772437      0.998609696     -29.4205361                0               0                0               0
6.0536              0.0309229426      56.1783221      0.998622094     -29.5080911                0               0                0               0
6.0544              0.0307147273      56.0796426      0.998634216     -29.5954413                0               0                0               0
6.0552              0.0305076533      55.9812019      0.998646067     -29.6825879                0               0                0               0
6.056               0.0303017116      55.8829968      0.998657652     -29.7695322                0               0                0               0
6.0568              0.0300968935      55.7850244      0.998668975     -29.8562756                0               0                0               0
6.0576              0.0298931902      55.6872815      0.998680041     -29.9428191                0               0                0               0
6.0584              0.0296905932      55.5897649      0.998690853     -30.0291642                0               0                0               0
6.0592              0.0294890938      55.4924717      0.998701417      -30.115312                0               0                0               0
6.06                0.0292886835      55.3953988      0.998711736     -30.2012637                0               0                0               0
6.0608              0.0290893541       55.298543      0.998721814     -30.2870205                0               0                0               0
6.0616              0.0288910972      55.2019014      0.998731656     -30.3725837                0               0                0               0
6.0624              0.0286939045       55.105471      0.998741265     -30.4579545                0               0                0               0
6.0632              0.0284977679      55.0092487      0.998750646     -30.5431339                0               0                0               0
6.064               0.0283026794      54.9132314      0.998759802     -30.6281233                0               0                0               0
6.0648               0.028108631      54.8174163      0.998768737     -30.7129237                0               0                0               0
6.0656              0.0279156147      54.7218002      0.998777455     -30.7975363                0               0                0               0
6.0664              0.0277236227      54.6263802       0.99878596     -30.8819622                0               0                0               0
6.0672              0.0275326472      54.5311533      0.998794255     -30.9662026                0               0                0               0
6.068               0.0273426806      54.4361166      0.998802344     -31.0502586                0               0                0               0
6.0688              0.0271537152       54.341267      0.998810231     -31.1341313                0               0                0               0
6.0696              0.0269657435      54.2466016      0.998817918     -31.2178218                0               0                0               0
6.0704               0.026778758      54.1521174       0.99882541     -31.3013312                0               0                0               0
6.0712              0.0265927513      54.0578115      0.998832709     -31.3846606                0               0                0               0
6.072                0.026407716      53.9636809      0.998839819     -31.4678111                0               0                0               0
6.0728               0.026223645      53.8697226      0.998846744     -31.5507837                0               0                0               0
6.0736               0.026040531      53.7759337      0.998853486     -31.6335795                0               0                0               0
6.0744              0.0258583669      53.6823112      0.998860049     -31.7161995                0               0                0               0
6.0752              0.0256771456      53.5888522      0.998866436     -31.7986448                0               0                0               0
6.076               0.0254968601      53.4955537      0.998872649     -31.8809164                0               0                0               0
6.0768              0.0253175035      53.4024128      0.998878693     -31.9630154                0               0                0               0
6.0776              0.0251390689      53.3094265      0.998884569     -32.0449426                0               0                0               0
6.0784              0.0249615496      53.2165919      0.998890281     -32.1266993                0               0                0               0
6.0792              0.0247849387       53.123906      0.998895832     -32.2082863                0               0                0               0
6.08                0.0246092297      53.0313658      0.998901224     -32.2897046                0               0                0               0
6.0808              0.0244344159      52.9389684      0.998906461     -32.3709553                0               0                0               0
6.0816              0.0242604907      52.8467107      0.998911545     -32.4520393                0               0                0               0
6.0824              0.0240874477      52.7545899      0.998916478     -32.5329575                0               0                0               0
6.0832              0.0239152804      52.6626029      0.998921264      -32.613711                0               0                0               0
6.084               0.0237439825      52.5707467      0.998925905     -32.6943006                0               0                0               0
6.0848              0.0235735476      52.4790183      0.998930404     -32.7747273                0               0                0               0
6.0856              0.0234039695      52.3874148      0.998934763     -32.8549922                0               0                0               0
6.0864               0.023235242      52.2959331      0.998938985      -32.935096                0               0                0               0
6.0872               0.023067359      52.2045701      0.998943071     -33.0150397                0               0                0               0
6.088               0.0229003144      52.1133229      0.998947026     -33.0948242                0               0                0               0
6.0888              0.0227341021      52.0221884       0.99895085     -33.1744504                0               0                0               0
6.0896              0.0225687161      51.9311635      0.998954547     -33.2539193                0               0                0               0
6.0904              0.0224041507      51.8402452      0.998958119     -33.3332316                0               0                0               0
6.0912              0.0222403998      51.7494303      0.998961567     -33.4123884                0               0                0               0
6.092               0.0220774577      51.6587158      0.998964895     -33.4913905                0               0                0               0
6.0928              0.0219153187      51.5680985      0.998968104     -33.5702386                0               0                0               0
6.0936              0.0217539769      51.4775753      0.998971197     -33.6489338                0               0                0               0
6.0944              0.0215934269       51.387143      0.998974176     -33.7274769                0               0                0               0
6.0952              0.0214336629      51.2967985      0.998977042     -33.8058687                0               0                0               0
6.096               0.0212746794      51.2065385      0.998979798       -33.88411                0               0                0               0
6.0968               0.021116471      51.1163599      0.998982447     -33.9622018                0               0                0               0
6.0976              0.0209590321      51.0262594      0.998984989     -34.0401447                0               0                0               0
6.0984              0.0208023573      50.9362337      0.998987427     -34.1179397                0               0                0               0
6.0992              0.0206464414      50.8462796      0.998989763     -34.1955876                0               0                0               0
6.1                  0.020491279      50.7563937         0.998992     -34.2730891                0               0                0               0
6.1008              0.0203368648      50.6665727      0.998994137     -34.3504452                0               0                0               0
6.1016              0.0201831937      50.5768133      0.998996179     -34.4276565                0               0                0               0
6.1024              0.0200302604       50.487112      0.998998126     -34.5047239                0               0                0               0
6.1032              0.0198780599      50.3974655       0.99899998     -34.5816481                0               0                0               0
6.104               0.0197265871      50.3078702      0.999001743       -34.65843                0               0                0               0
6.1048              0.0195758369      50.2183227      0.999003417     -34.7350702                0               0                0               0
6.1056              0.0194258044      50.1288195      0.999005004     -34.8115697                0               0                0               0
6.1064              0.0192764846      50.0393569      0.999006504     -34.8879291                0               0                0               0
6.1072              0.0191278726      49.9499315      0.999007921     -34.9641492                0               0                0               0
6.108               0.0189799637      49.8605396      0.999009255     -35.0402307                0               0                0               0
6.1088              0.0188327529      49.7711775      0.999010508     -35.1161745                0               0                0               0
6.1096              0.0186862355      49.6818415      0.999011682     -35.1919811                0               0                0               0
6.1104              0.0185404068      49.5925279      0.999012778     -35.2676515                0               0                0               0
6.1112              0.0183952622      49.5032328      0.999013798     -35.3431862                0               0                0               0
6.112               0.0182507968      49.4139524      0.999014743      -35.418586                0               0                0               0
6.1128              0.0181070063      49.3246828      0.999015615     -35.4938516                0               0                0               0
6.1136               0.017963886      49.2354202      0.999016415     -35.5689838                0               0                0               0
6.1144              0.0178214313      49.1461604      0.999017145     -35.6439833                0               0                0               0
6.1152              0.0176796378      49.0568994      0.999017807     -35.7188506                0               0                0               0
6.116               0.0175385012      48.9676332        0.9990184     -35.7935867                0               0                0               0
6.1168              0.0173980168      48.8783576      0.999018928      -35.868192                0               0                0               0
6.1176              0.0172581805      48.7890684      0.999019391     -35.9426674                0               0                0               0
6.1184              0.0171189878      48.6997613      0.999019791     -36.0170134                0               0                0               0
6.1192              0.0169804346      48.6104319      0.999020129     -36.0912308                0               0                0               0
6.12                0.0168425164      48.5210759      0.999020406     -36.1653203                0               0                0               0
6.1208              0.0167052292      48.4316888      0.999020623     -36.2392825                0               0                0               0
6.1216              0.0165685688      48.3422661      0.999020782      -36.313118                0               0                0               0
6.1224              0.0164325309       48.252803      0.999020885     -36.3868275                0               0                0               0
6.1232              0.0162971115       48.163295      0.999020931     -36.4604117                0               0                0               0
6.124               0.0161623066      48.0737373      0.999020923     -36.5338713                0               0                0               0
6.1248               0.016028112       47.984125      0.999020862     -36.6072067                0               0                0               0
6.1256              0.0158945239      47.8944532      0.999020748     -36.6804188                0               0                0               0
6.1264              0.0157615382      47.8047169      0.999020583     -36.7535081                0               0                0               0
6.1272              0.0156291509      47.7149109      0.999020368     -36.8264752                0               0                0               0
6.128               0.0154973583      47.6250301      0.999020105     -36.8993208                0               0                0               0
6.1288              0.0153661564      47.5350691      0.999019793     -36.9720454                0               0                0               0
6.1296              0.0152355414      47.4450227      0.999019435     -37.0446498                0               0                0               0
6.1304              0.0151055096      47.3548852      0.999019032     -37.1171344                0               0                0               0
6.1312               0.014976057      47.2646511      0.999018583        -37.1895                0               0                0               0
6.132               0.0148471801      47.1743146      0.999018091     -37.2617471                0               0                0               0
6.1328              0.0147188751        47.08387      0.999017557     -37.3338762                0               0                0               0
6.1336              0.0145911383      46.9933112       0.99901698     -37.4058881                0               0                0               0
6.1344              0.0144639662      46.9026322      0.999016363     -37.4777832                0               0                0               0
6.1352               0.014337355      46.8118268      0.999015707     -37.5495622                0               0                0               0
6.136               0.0142113013      46.7208888      0.999015012     -37.6212257                0               0                0               0
6.1368              0.0140858014      46.6298115      0.999014278     -37.6927741                0               0                0               0
6.1376              0.0139608519      46.5385884      0.999013508     -37.7642081                0               0                0               0
6.1384              0.0138364493      46.4472128      0.999012702     -37.8355283                0               0                0               0
6.1392              0.0137125901      46.3556777      0.999011861     -37.9067351                0               0                0               0
6.14                 0.013589271      46.2639761      0.999010985     -37.9778292                0               0                0               0
6.1408              0.0134664884      46.1721008      0.999010076     -38.0488112                0               0                0               0
6.1416               0.013344239      46.0800444      0.999009135     -38.1196815                0               0                0               0
6.1424              0.0132225196      45.9877992      0.999008162     -38.1904407                0               0                0               0
6.1432              0.0131013267      45.8953576      0.999007157     -38.2610894                0               0                0               0
6.144               0.0129806572      45.8027116      0.999006123     -38.3316281                0               0                0               0
6.1448              0.0128605077      45.7098531      0.999005059     -38.4020572                0               0                0               0
6.1456               0.012740875      45.6167738      0.999003967     -38.4723775                0               0                0               0
6.1464              0.0126217559       45.523465      0.999002846     -38.5425893                0               0                0               0
6.1472              0.0125031474      45.4299181      0.999001699     -38.6126932                0               0                0               0
6.148               0.0123850461       45.336124      0.999000525     -38.6826898                0               0                0               0
6.1488              0.0122674491      45.2420735      0.998999326     -38.7525794                0               0                0               0
6.1496              0.0121503531      45.1477572      0.998998102     -38.8223628                0               0                0               0
6.1504              0.0120337552      45.0531653      0.998996853     -38.8920403                0               0                0               0
6.1512              0.0119176523      44.9582878      0.998995581     -38.9616124                0               0                0               0
6.152               0.0118020415      44.8631144      0.998994286     -39.0310797                0               0                0               0
6.1528              0.0116869196      44.7676346      0.998992969     -39.1004427                0               0                0               0
6.1536              0.0115722838      44.6718377      0.998991631     -39.1697019                0               0                0               0
6.1544              0.0114581311      44.5757123      0.998990271     -39.2388576                0               0                0               0
6.1552              0.0113444587       44.479247      0.998988891     -39.3079106                0               0                0               0
6.156               0.0112312636        44.38243      0.998987492     -39.3768611                0               0                0               0
6.1568              0.0111185429      44.2852492      0.998986074     -39.4457097                0               0                0               0