! TOUCHSTONE file generated by CST MICROWAVE STUDIO
! Date and time: Fri Apr 25 09:59:45 2025
! Project name: X²¨¶ÎÐý×ª·ÖÎö.cst
! Parameters = {realphi=180; phi=540; theta=0; blendraduis=2.84566; L=6; Pin=1; a=20; b=10; blendFmax=0.02; blendradius=2.85; d=5; s=4; ta=16.03; tb=10.61; totaltime=10; trh=1.69; wr=11.49; wt=0.91}
! Header version: 2018
! Port assignment regex: !\s*Touchstone port\s*([0-9]+)\s*=\s*(CST MWS port|CST DS port)\s*([0-9]+|Zmin|Zmax)\s*\(\"(.*)\"\)(\s*mode\s*([0-9]+))?.*
! Touchstone port assignment:
! Touchstone port 1 = CST MWS port 1 ("")
! Touchstone port 2 = CST MWS port 2 ("")
! S-Parameters are not renormalized. Unphysical impedance of 0 will be written to the file.
# GHz S MA R 0
6                   0.0469703681      63.4481077      0.996926446      -23.178125                0               0                0               0
6.0008              0.0466536879      63.3301374       0.99696464     -23.2820983                0               0                0               0
6.0016              0.0463392195      63.2126506      0.997002192     -23.3857602                0               0                0               0
6.0024              0.0460269408      63.0956413      0.997039114     -23.4891129                0               0                0               0
6.0032              0.0457168299      62.9791042      0.997075414     -23.5921586                0               0                0               0
6.004               0.0454088651      62.8630336      0.997111103     -23.6948995                0               0                0               0
6.0048              0.0451030251      62.7474242       0.99714619     -23.7973377                0               0                0               0
6.0056              0.0447992888      62.6322706      0.997180684     -23.8994754                0               0                0               0
6.0064              0.0444976354      62.5175673      0.997214595     -24.0013147                0               0                0               0
6.0072              0.0441980443      62.4033093      0.997247932     -24.1028577                0               0                0               0
6.008               0.0439004952      62.2894913      0.997280703     -24.2041065                0               0                0               0
6.0088              0.0436049681      62.1761081      0.997312918     -24.3050632                0               0                0               0
6.0096               0.043311443      62.0631548      0.997344585     -24.4057298                0               0                0               0
6.0104              0.0430199005      61.9506263      0.997375713     -24.5061083                0               0                0               0
6.0112              0.0427303212      61.8385176      0.997406309     -24.6062007                0               0                0               0
6.012                0.042442686      61.7268239      0.997436383     -24.7060091                0               0                0               0
6.0128               0.042156976      61.6155402      0.997465942     -24.8055353                0               0                0               0
6.0136              0.0418731725      61.5046619      0.997494995     -24.9047814                0               0                0               0
6.0144              0.0415912573      61.3941842      0.997523549     -25.0037493                0               0                0               0
6.0152               0.041311212      61.2841025      0.997551612     -25.1024409                0               0                0               0
6.016               0.0410330187       61.174412      0.997579191      -25.200858                0               0                0               0
6.0168              0.0407566597      61.0651082      0.997606295     -25.2990026                0               0                0               0
6.0176              0.0404821173      60.9561866      0.997632931     -25.3968766                0               0                0               0
6.0184              0.0402093744      60.8476427      0.997659105     -25.4944817                0               0                0               0
6.0192              0.0399384137      60.7394721      0.997684825     -25.5918198                0               0                0               0
6.02                0.0396692184      60.6316704      0.997710099     -25.6888927                0               0                0               0
6.0208              0.0394017717      60.5242333      0.997734932     -25.7857022                0               0                0               0
6.0216              0.0391360571      60.4171564      0.997759333     -25.8822502                0               0                0               0
6.0224              0.0388720584      60.3104355      0.997783307     -25.9785382                0               0                0               0
6.0232              0.0386097593      60.2040665      0.997806861     -26.0745682                0               0                0               0
6.024               0.0383491439      60.0980451      0.997830002     -26.1703417                0               0                0               0
6.0248              0.0380901966      59.9923672      0.997852737     -26.2658607                0               0                0               0
6.0256              0.0378329018      59.8870288      0.997875071     -26.3611266                0               0                0               0
6.0264               0.037577244      59.7820257      0.997897011     -26.4561413                0               0                0               0
6.0272              0.0373232081      59.6773541      0.997918562     -26.5509063                0               0                0               0
6.028               0.0370707791        59.57301      0.997939732     -26.6454234                0               0                0               0
6.0288              0.0368199421      59.4689893      0.997960526     -26.7396942                0               0                0               0
6.0296              0.0365706825      59.3652884       0.99798095     -26.8337203                0               0                0               0
6.0304              0.0363229858      59.2619031      0.998001009     -26.9275032                0               0                0               0
6.0312              0.0360768377      59.1588299      0.998020709     -27.0210447                0               0                0               0
6.032                0.035832224      59.0560648      0.998040056     -27.1143463                0               0                0               0
6.0328              0.0355891307      58.9536042      0.998059056     -27.2074095                0               0                0               0
6.0336               0.035347544      58.8514443      0.998077714      -27.300236                0               0                0               0
6.0344              0.0351074502      58.7495815      0.998096034     -27.3928272                0               0                0               0
6.0352              0.0348688358       58.648012      0.998114024     -27.4851846                0               0                0               0
6.036               0.0346316875      58.5467324      0.998131686     -27.5773099                0               0                0               0
6.0368              0.0343959921      58.4457389      0.998149028     -27.6692044                0               0                0               0
6.0376              0.0341617365       58.345028      0.998166053     -27.7608697                0               0                0               0
6.0384              0.0339289077      58.2445963      0.998182767     -27.8523072                0               0                0               0
6.0392              0.0336974931      58.1444401      0.998199174     -27.9435184                0               0                0               0
6.04                0.0334674801       58.044556       0.99821528     -28.0345048                0               0                0               0
6.0408              0.0332388562      57.9449407      0.998231089     -28.1252678                0               0                0               0
6.0416               0.033011609      57.8455905      0.998246606     -28.2158087                0               0                0               0
6.0424              0.0327857264      57.7465022      0.998261835     -28.3061291                0               0                0               0
6.0432              0.0325611963      57.6476724       0.99827678     -28.3962302                0               0                0               0
6.044               0.0323380069      57.5490978      0.998291448     -28.4861136                0               0                0               0
6.0448              0.0321161463      57.4507749       0.99830584     -28.5757805                0               0                0               0
6.0456               0.031895603      57.3527006      0.998319963     -28.6652324                0               0                0               0
6.0464              0.0316763653      57.2548715       0.99833382     -28.7544705                0               0                0               0
6.0472              0.0314584219      57.1572843      0.998347416     -28.8434962                0               0                0               0
6.048               0.0312417617      57.0599359      0.998360754     -28.9323109                0               0                0               0
6.0488              0.0310263733       56.962823      0.998373838     -29.0209158                0               0                0               0
6.0496              0.0308122459      56.8659425      0.998386673     -29.1093123                0               0                0               0
6.0504              0.0305993685      56.7692911      0.998399263     -29.1975017                0               0                0               0
6.0512              0.0303877304      56.6728656      0.998411611     -29.2854851                0               0                0               0
6.052                0.030177321       56.576663      0.998423722      -29.373264                0               0                0               0
6.0528              0.0299681297      56.4806802      0.998435598     -29.4608395                0               0                0               0
6.0536               0.029760146      56.3849139      0.998447244      -29.548213                0               0                0               0
6.0544              0.0295533598      56.2893612      0.998458664     -29.6353856                0               0                0               0
6.0552              0.0293477608      56.1940189       0.99846986     -29.7223585                0               0                0               0
6.056                0.029143339       56.098884      0.998480837     -29.8091331                0               0                0               0
6.0568              0.0289400843      56.0039534      0.998491598     -29.8957104                0               0                0               0
6.0576               0.028737987      55.9092242      0.998502146     -29.9820918                0               0                0               0
6.0584              0.0285370373      55.8146932      0.998512486     -30.0682784                0               0                0               0
6.0592              0.0283372256      55.7203574      0.998522619     -30.1542713                0               0                0               0
6.06                0.0281385422       55.626214      0.998532549     -30.2400717                0               0                0               0
6.0608              0.0279409779      55.5322598      0.998542281     -30.3256808                0               0                0               0
6.0616              0.0277445232      55.4384919      0.998551816     -30.4110998                0               0                0               0
6.0624               0.027549169      55.3449074      0.998561158     -30.4963298                0               0                0               0
6.0632               0.027354906      55.2515032       0.99857031     -30.5813718                0               0                0               0
6.064               0.0271617253      55.1582765      0.998579276     -30.6662271                0               0                0               0
6.0648               0.026969618      55.0652242      0.998588057     -30.7508967                0               0                0               0
6.0656              0.0267785751      54.9723435      0.998596657     -30.8353817                0               0                0               0
6.0664               0.026588588      54.8796314       0.99860508     -30.9196833                0               0                0               0
6.0672               0.026399648       54.787085      0.998613327     -31.0038025                0               0                0               0
6.068               0.0262117464      54.6947013      0.998621402     -31.0877404                0               0                0               0
6.0688               0.026024875      54.6024775      0.998629307      -31.171498                0               0                0               0
6.0696              0.0258390252      54.5104107      0.998637046     -31.2550765                0               0                0               0
6.0704              0.0256541888      54.4184979       0.99864462     -31.3384768                0               0                0               0
6.0712              0.0254703576      54.3267363      0.998652033        -31.4217                0               0                0               0
6.072               0.0252875235      54.2351228      0.998659287     -31.5047471                0               0                0               0
6.0728              0.0251056783      54.1436547      0.998666385     -31.5876192                0               0                0               0
6.0736              0.0249248143      54.0523291      0.998673329     -31.6703172                0               0                0               0
6.0744              0.0247449234      53.9611429      0.998680122     -31.7528423                0               0                0               0
6.0752               0.024565998      53.8700934      0.998686766     -31.8351953                0               0                0               0
6.076               0.0243880303      53.7791775      0.998693264     -31.9173772                0               0                0               0
6.0768              0.0242110126      53.6883925      0.998699618     -31.9993891                0               0                0               0
6.0776              0.0240349375      53.5977353       0.99870583      -32.081232                0               0                0               0
6.0784              0.0238597975      53.5072032      0.998711903     -32.1629067                0               0                0               0
6.0792              0.0236855852      53.4167931      0.998717839     -32.2444143                0               0                0               0
6.08                0.0235122932      53.3265021       0.99872364     -32.3257556                0               0                0               0
6.0808              0.0233399144      53.2363273      0.998729309     -32.4069318                0               0                0               0
6.0816              0.0231684415      53.1462657      0.998734848     -32.4879436                0               0                0               0
6.0824              0.0229978675      53.0563145      0.998740258      -32.568792                0               0                0               0
6.0832              0.0228281854      52.9664706      0.998745542     -32.6494779                0               0                0               0
6.084               0.0226593882      52.8767311      0.998750703     -32.7300023                0               0                0               0
6.0848               0.022491469      52.7870929      0.998755741      -32.810366                0               0                0               0
6.0856               0.022324421      52.6975532       0.99876066       -32.89057                0               0                0               0
6.0864              0.0221582375      52.6081089       0.99876546     -32.9706151                0               0                0               0
6.0872              0.0219929118       52.518757      0.998770145     -33.0505022                0               0                0               0
6.088               0.0218284373      52.4294945      0.998774716     -33.1302323                0               0                0               0
6.0888              0.0216648074      52.3403182      0.998779175     -33.2098062                0               0                0               0
6.0896              0.0215020158      52.2512253      0.998783524     -33.2892246                0               0                0               0
6.0904              0.0213400559      52.1622125      0.998787764     -33.3684886                0               0                0               0
6.0912              0.0211789215      52.0732768      0.998791898      -33.447599                0               0                0               0
6.092               0.0210186063      51.9844151      0.998795928     -33.5265566                0               0                0               0
6.0928               0.020859104      51.8956242      0.998799854     -33.6053622                0               0                0               0
6.0936              0.0207004085       51.806901      0.998803679     -33.6840166                0               0                0               0
6.0944              0.0205425137      51.7182423      0.998807405     -33.7625208                0               0                0               0
6.0952              0.0203854136      51.6296449      0.998811033     -33.8408755                0               0                0               0
6.096               0.0202291022      51.5411056      0.998814565     -33.9190815                0               0                0               0
6.0968              0.0200735735      51.4526211      0.998818003     -33.9971397                0               0                0               0
6.0976              0.0199188218      51.3641881      0.998821347     -34.0750508                0               0                0               0
6.0984              0.0197648412      51.2758034      0.998824601     -34.1528157                0               0                0               0
6.0992              0.0196116259      51.1874636      0.998827765      -34.230435                0               0                0               0
6.1                 0.0194591704      51.0991653      0.998830841     -34.3079097                0               0                0               0
6.1008              0.0193074689      51.0109052       0.99883383     -34.3852405                0               0                0               0
6.1016              0.0191565159      50.9226798      0.998836734     -34.4624281                0               0                0               0
6.1024              0.0190063059      50.8344855      0.998839554     -34.5394733                0               0                0               0
6.1032              0.0188568334      50.7463191      0.998842293     -34.6163769                0               0                0               0
6.104               0.0187080929      50.6581768      0.998844951     -34.6931397                0               0                0               0
6.1048              0.0185600792      50.5700551      0.998847529     -34.7697623                0               0                0               0
6.1056              0.0184127869      50.4819504       0.99885003     -34.8462455                0               0                0               0
6.1064              0.0182662108       50.393859      0.998852454     -34.9225901                0               0                0               0
6.1072              0.0181203455      50.3057772      0.998854803     -34.9987968                0               0                0               0
6.108               0.0179751861      50.2177013      0.998857078     -35.0748663                0               0                0               0
6.1088              0.0178307274      50.1296274       0.99885928     -35.1507994                0               0                0               0
6.1096              0.0176869642      50.0415518      0.998861412     -35.2265966                0               0                0               0
6.1104              0.0175438917      49.9534704      0.998863473     -35.3022589                0               0                0               0
6.1112              0.0174015048      49.8653794      0.998865466     -35.3777868                0               0                0               0
6.112               0.0172597986      49.7772747      0.998867391     -35.4531811                0               0                0               0
6.1128              0.0171187683      49.6891523       0.99886925     -35.5284424                0               0                0               0
6.1136               0.016978409       49.601008      0.998871044     -35.6035714                0               0                0               0
6.1144               0.016838716      49.5128376      0.998872775     -35.6785689                0               0                0               0
6.1152              0.0166996845       49.424637      0.998874442     -35.7534355                0               0                0               0
6.116               0.0165613098      49.3364017      0.998876048     -35.8281719                0               0                0               0
6.1168              0.0164235873      49.2481273      0.998877593     -35.9027787                0               0                0               0
6.1176              0.0162865124      49.1598095       0.99887908     -35.9772567                0               0                0               0
6.1184              0.0161500805      49.0714437      0.998880508     -36.0516064                0               0                0               0
6.1192              0.0160142872      48.9830253      0.998881878     -36.1258285                0               0                0               0
6.12                0.0158791279      48.8945495      0.998883193     -36.1999237                0               0                0               0
6.1208              0.0157445982      48.8060117      0.998884453     -36.2738927                0               0                0               0
6.1216              0.0156106937      48.7174069      0.998885659     -36.3477359                0               0                0               0
6.1224              0.0154774102      48.6287302      0.998886812     -36.4214542                0               0                0               0
6.1232              0.0153447432      48.5399766      0.998887912     -36.4950481                0               0                0               0
6.124               0.0152126885       48.451141      0.998888962     -36.5685183                0               0                0               0
6.1248              0.0150812419       48.362218      0.998889962     -36.6418653                0               0                0               0
6.1256              0.0149503992      48.2732025      0.998890913     -36.7150898                0               0                0               0
6.1264              0.0148201562      48.1840889      0.998891815     -36.7881924                0               0                0               0
6.1272              0.0146905089      48.0948717      0.998892671     -36.8611737                0               0                0               0
6.128               0.0145614531      48.0055452       0.99889348     -36.9340344                0               0                0               0
6.1288              0.0144329849      47.9161037      0.998894244     -37.0067749                0               0                0               0
6.1296              0.0143051002      47.8265413      0.998894963     -37.0793959                0               0                0               0
6.1304              0.0141777951       47.736852      0.998895638     -37.1518981                0               0                0               0
6.1312              0.0140510656      47.6470295      0.998896271     -37.2242819                0               0                0               0
6.132               0.0139249079      47.5570677      0.998896862      -37.296548                0               0                0               0
6.1328              0.0137993181      47.4669601      0.998897412      -37.368697                0               0                0               0
6.1336              0.0136742924      47.3767001      0.998897921     -37.4407294                0               0                0               0
6.1344               0.013549827      47.2862809      0.998898391     -37.5126457                0               0                0               0
6.1352              0.0134259182      47.1956958      0.998898823     -37.5844466                0               0                0               0
6.136               0.0133025622      47.1049377      0.998899216     -37.6561327                0               0                0               0
6.1368              0.0131797553      47.0139993      0.998899573     -37.7277044                0               0                0               0
6.1376               0.013057494      46.9228733      0.998899893     -37.7991623                0               0                0               0
6.1384              0.0129357747      46.8315521      0.998900177     -37.8705071                0               0                0               0
6.1392              0.0128145936      46.7400279      0.998900427     -37.9417391                0               0                0               0
6.14                0.0126939474      46.6482929      0.998900642     -38.0128591                0               0                0               0
6.1408              0.0125738324      46.5563388      0.998900824     -38.0838674                0               0                0               0
6.1416              0.0124542452      46.4641573      0.998900973     -38.1547647                0               0                0               0
6.1424              0.0123351824      46.3717398       0.99890109     -38.2255515                0               0                0               0
6.1432              0.0122166405      46.2790775      0.998901176     -38.2962283                0               0                0               0
6.144               0.0120986161      46.1861613      0.998901231     -38.3667956                0               0                0               0
6.1448               0.011981106       46.092982      0.998901256     -38.4372539                0               0                0               0
6.1456              0.0118641066        45.99953      0.998901252     -38.5076039                0               0                0               0
6.1464              0.0117476149      45.9057956      0.998901219     -38.5778459                0               0                0               0
6.1472              0.0116316275      45.8117685      0.998901158     -38.6479805                0               0                0               0
6.148               0.0115161411      45.7174384      0.998901069     -38.7180082                0               0                0               0
6.1488              0.0114011526      45.6227947      0.998900954     -38.7879295                0               0                0               0
6.1496              0.0112866588      45.5278264      0.998900812     -38.8577449                0               0                0               0
6.1504              0.0111726565      45.4325222      0.998900645      -38.927455                0               0                0               0
6.1512              0.0110591426      45.3368703      0.998900452     -38.9970601                0               0                0               0
6.152               0.0109461141      45.2408589      0.998900235     -39.0665607                0               0                0               0
6.1528              0.0108335679      45.1444755      0.998899994     -39.1359575                0               0                0               0
6.1536              0.0107215009      45.0477075       0.99889973     -39.2052508                0               0                0               0
6.1544              0.0106099102      44.9505416      0.998899443     -39.2744411                0               0                0               0
6.1552              0.0104987927      44.8529642      0.998899133      -39.343529                0               0                0               0
6.156               0.0103881456      44.7549615      0.998898802     -39.4125148                0               0                0               0
6.1568              0.0102779658       44.656519      0.998898449      -39.481399                0               0                0               0