! TOUCHSTONE file generated by CST MICROWAVE STUDIO
! Date and time: Fri Apr 25 09:59:44 2025
! Project name: X²¨¶ÎÐý×ª·ÖÎö.cst
! Parameters = {realphi=90; phi=450; theta=3; blendraduis=2.84566; L=6; Pin=1; a=20; b=10; blendFmax=0.02; blendradius=2.85; d=5; s=4; ta=16.03; tb=10.61; totaltime=10; trh=1.69; wr=11.49; wt=0.91}
! Header version: 2018
! Port assignment regex: !\s*Touchstone port\s*([0-9]+)\s*=\s*(CST MWS port|CST DS port)\s*([0-9]+|Zmin|Zmax)\s*\(\"(.*)\"\)(\s*mode\s*([0-9]+))?.*
! Touchstone port assignment:
! Touchstone port 1 = CST MWS port 1 ("")
! Touchstone port 2 = CST MWS port 2 ("")
! S-Parameters are not renormalized. Unphysical impedance of 0 will be written to the file.
# GHz S MA R 0
6                   0.0428813663      67.6912139      0.997121585     -23.3395231                0               0                0               0
6.0008              0.0425746392       67.568888      0.997220028     -23.4406804                0               0                0               0
6.0016              0.0422699962       67.447229      0.997316556     -23.5416174                0               0                0               0
6.0024              0.0419674183      67.3262307      0.997411189     -23.6423346                0               0                0               0
6.0032              0.0416668863      67.2058869      0.997503945     -23.7428324                0               0                0               0
6.004               0.0413683814      67.0861919      0.997594844     -23.8431114                0               0                0               0
6.0048              0.0410718849      66.9671395      0.997683904     -23.9431722                0               0                0               0
6.0056              0.0407773785      66.8487241      0.997771144     -24.0430152                0               0                0               0
6.0064              0.0404848438      66.7309398      0.997856581     -24.1426409                0               0                0               0
6.0072              0.0401942627      66.6137811      0.997940235     -24.2420499                0               0                0               0
6.008               0.0399056175      66.4972423      0.998022123     -24.3412427                0               0                0               0
6.0088              0.0396188904      66.3813179      0.998102264     -24.4402198                0               0                0               0
6.0096              0.0393340639      66.2660027      0.998180676     -24.5389818                0               0                0               0
6.0104              0.0390511208      66.1512911      0.998257376     -24.6375292                0               0                0               0
6.0112              0.0387700438      66.0371779      0.998332382     -24.7358625                0               0                0               0
6.012               0.0384908161       65.923658      0.998405712     -24.8339823                0               0                0               0
6.0128              0.0382134209      65.8107261      0.998477383     -24.9318891                0               0                0               0
6.0136              0.0379378415      65.6983774      0.998547413     -25.0295835                0               0                0               0
6.0144              0.0376640616      65.5866068       0.99861582     -25.1270659                0               0                0               0
6.0152              0.0373920649      65.4754093       0.99868262     -25.2243371                0               0                0               0
6.016               0.0371218354      65.3647803       0.99874783     -25.3213974                0               0                0               0
6.0168              0.0368533572      65.2547149      0.998811468     -25.4182475                0               0                0               0
6.0176              0.0365866144      65.1452084      0.998873551     -25.5148879                0               0                0               0
6.0184              0.0363215917      65.0362562      0.998934095     -25.6113192                0               0                0               0
6.0192              0.0360582735      64.9278537      0.998993117     -25.7075419                0               0                0               0
6.02                0.0357966446      64.8199966      0.999050634     -25.8035566                0               0                0               0
6.0208              0.0355366901      64.7126802      0.999106661     -25.8993638                0               0                0               0
6.0216              0.0352783948      64.6059004      0.999161217     -25.9949642                0               0                0               0
6.0224              0.0350217441      64.4996528      0.999214316     -26.0903582                0               0                0               0
6.0232              0.0347667235      64.3939331      0.999265974     -26.1855465                0               0                0               0
6.024               0.0345133183      64.2887373      0.999316209     -26.2805296                0               0                0               0
6.0248              0.0342615144      64.1840612      0.999365036     -26.3753081                0               0                0               0
6.0256              0.0340112976      64.0799008       0.99941247     -26.4698826                0               0                0               0
6.0264               0.033762654      63.9762521      0.999458528     -26.5642536                0               0                0               0
6.0272              0.0335155696      63.8731111      0.999503225     -26.6584217                0               0                0               0
6.028               0.0332700307      63.7704742      0.999546577     -26.7523876                0               0                0               0
6.0288              0.0330260239      63.6683374      0.999588599     -26.8461517                0               0                0               0
6.0296              0.0327835357       63.566697      0.999629306     -26.9397146                0               0                0               0
6.0304              0.0325425528      63.4655494      0.999668714      -27.033077                0               0                0               0
6.0312              0.0323030621      63.3648909      0.999706838     -27.1262393                0               0                0               0
6.032               0.0320650506       63.264718      0.999743692     -27.2192023                0               0                0               0
6.0328              0.0318285054      63.1650271      0.999779292     -27.3119665                0               0                0               0
6.0336              0.0315934139       63.065815      0.999813652     -27.4045324                0               0                0               0
6.0344              0.0313597634       62.967078      0.999846788     -27.4969007                0               0                0               0
6.0352              0.0311275416      62.8688131      0.999878713     -27.5890719                0               0                0               0
6.036               0.0308967359      62.7710167      0.999909443     -27.6810467                0               0                0               0
6.0368              0.0306673344      62.6736859      0.999938991     -27.7728256                0               0                0               0
6.0376              0.0304393248      62.5768173      0.999967372     -27.8644092                0               0                0               0
6.0384              0.0302126953      62.4804079        0.9999946     -27.9557981                0               0                0               0
6.0392              0.0299874341      62.3844546                1     -28.0469929                0               0                0               0
6.04                0.0297635294      62.2889544                1     -28.1379942                0               0                0               0
6.0408              0.0295409696      62.1939044                1     -28.2288026                0               0                0               0
6.0416              0.0293197434      62.0993018                1     -28.3194187                0               0                0               0
6.0424              0.0290998394      62.0051436                1      -28.409843                0               0                0               0
6.0432              0.0288812463       61.911427                1     -28.5000763                0               0                0               0
6.044               0.0286639532      61.8181495                1      -28.590119                0               0                0               0
6.0448              0.0284479489      61.7253082                1     -28.6799717                0               0                0               0
6.0456              0.0282332226      61.6329005                1     -28.7696352                0               0                0               0
6.0464              0.0280197637      61.5409239                1     -28.8591099                0               0                0               0
6.0472              0.0278075613      61.4493758                1     -28.9483964                0               0                0               0
6.048               0.0275966051      61.3582539                1     -29.0374955                0               0                0               0
6.0488              0.0273868845      61.2675555                1     -29.1264076                0               0                0               0
6.0496              0.0271783892      61.1772785                1     -29.2151334                0               0                0               0
6.0504              0.0269711091      61.0874205                1     -29.3036734                0               0                0               0
6.0512               0.026765034      60.9979791                1     -29.3920283                0               0                0               0
6.052               0.0265601539      60.9089523                1     -29.4801987                0               0                0               0
6.0528               0.026356459      60.8203378                1     -29.5681852                0               0                0               0
6.0536              0.0261539393      60.7321335                1     -29.6559883                0               0                0               0
6.0544              0.0259525853      60.6443374                1     -29.7436088                0               0                0               0
6.0552              0.0257523873      60.5569474                1     -29.8310471                0               0                0               0
6.056               0.0255533359      60.4699617                1     -29.9183039                0               0                0               0
6.0568              0.0253554215      60.3833782                1     -30.0053798                0               0                0               0
6.0576              0.0251586349      60.2971951                1     -30.0922753                0               0                0               0
6.0584               0.024962967      60.2114107                1     -30.1789912                0               0                0               0
6.0592              0.0247684085      60.1260231                1      -30.265528                0               0                0               0
6.06                0.0245749504      60.0410307                1     -30.3518862                0               0                0               0
6.0608              0.0243825838      59.9564319                1     -30.4380666                0               0                0               0
6.0616              0.0241912999      59.8722249                1     -30.5240697                0               0                0               0
6.0624              0.0240010899      59.7884083                1     -30.6098961                0               0                0               0
6.0632              0.0238119451      59.7049805                1     -30.6955464                0               0                0               0
6.064               0.0236238569      59.6219402                1     -30.7810212                0               0                0               0
6.0648              0.0234368169      59.5392859                1     -30.8663211                0               0                0               0
6.0656              0.0232508166      59.4570163                1     -30.9514468                0               0                0               0
6.0664              0.0230658477      59.3751301                1     -31.0363988                0               0                0               0
6.0672               0.022881902      59.2936261                1     -31.1211777                0               0                0               0
6.068               0.0226989713      59.2125031                1     -31.2057841                0               0                0               0
6.0688              0.0225170476      59.1317599                1     -31.2902187                0               0                0               0
6.0696              0.0223361227      59.0513955                1     -31.3744819                0               0                0               0
6.0704              0.0221561889      58.9714089                1     -31.4585746                0               0                0               0
6.0712              0.0219772383      58.8917991                1     -31.5424971                0               0                0               0
6.072                0.021799263      58.8125652                1     -31.6262502                0               0                0               0
6.0728              0.0216222555      58.7337064                1     -31.7098344                0               0                0               0
6.0736              0.0214462082      58.6552218                1     -31.7932504                0               0                0               0
6.0744              0.0212711134      58.5771108                1     -31.8764986                0               0                0               0
6.0752              0.0210969637      58.4993725                1     -31.9595798                0               0                0               0
6.076               0.0209237517      58.4220066                1     -32.0424945                0               0                0               0
6.0768              0.0207514702      58.3450122                1     -32.1252434                0               0                0               0
6.0776              0.0205801119      58.2683891                1      -32.207827                0               0                0               0
6.0784              0.0204096696      58.1921366                1     -32.2902458                0               0                0               0
6.0792              0.0202401363      58.1162545                1     -32.3725006                0               0                0               0
6.08                0.0200715048      58.0407424                1     -32.4545919                0               0                0               0
6.0808              0.0199037682      57.9656001                1     -32.5365203                0               0                0               0
6.0816              0.0197369197      57.8908274                1     -32.6182864                0               0                0               0
6.0824              0.0195709524      57.8164242                1     -32.6998908                0               0                0               0
6.0832              0.0194058596      57.7423903                1      -32.781334                0               0                0               0
6.084               0.0192416345      57.6687258                1     -32.8626168                0               0                0               0
6.0848              0.0190782705      57.5954308                1     -32.9437396                0               0                0               0
6.0856              0.0189157611      57.5225055                1      -33.024703                0               0                0               0
6.0864              0.0187540998        57.44995      0.999996273     -33.1055077                0               0                0               0
6.0872              0.0185932801      57.3777646       0.99997614     -33.1861542                0               0                0               0
6.088               0.0184332957      57.3059498      0.999955547     -33.2666432                0               0                0               0
6.0888              0.0182741402      57.2345058      0.999934504     -33.3469751                0               0                0               0
6.0896              0.0181158074      57.1634333      0.999913018     -33.4271506                0               0                0               0
6.0904               0.017958291      57.0927329      0.999891099     -33.5071704                0               0                0               0
6.0912              0.0178015851      57.0224051      0.999868755     -33.5870348                0               0                0               0
6.092               0.0176456834      56.9524508      0.999845992     -33.6667447                0               0                0               0
6.0928              0.0174905799      56.8828708      0.999822821     -33.7463004                0               0                0               0
6.0936              0.0173362688      56.8136659      0.999799248     -33.8257027                0               0                0               0
6.0944              0.0171827441      56.7448373      0.999775282     -33.9049521                0               0                0               0
6.0952                   0.01703       56.676386       0.99975093     -33.9840491                0               0                0               0
6.096               0.0168780306      56.6083131      0.999726201     -34.0629944                0               0                0               0
6.0968              0.0167268302        56.54062      0.999701102     -34.1417885                0               0                0               0
6.0976              0.0165763932       56.473308       0.99967564     -34.2204321                0               0                0               0
6.0984              0.0164267139      56.4063786      0.999649823     -34.2989256                0               0                0               0
6.0992              0.0162777867      56.3398333       0.99962366     -34.3772697                0               0                0               0
6.1                 0.0161296062      56.2736739      0.999597156     -34.4554649                0               0                0               0
6.1008              0.0159821668       56.207902       0.99957032     -34.5335118                0               0                0               0
6.1016              0.0158354632      56.1425196      0.999543158      -34.611411                0               0                0               0
6.1024              0.0156894899      56.0775286      0.999515678     -34.6891631                0               0                0               0
6.1032              0.0155442417      56.0129312      0.999487888     -34.7667686                0               0                0               0
6.104               0.0153997133      55.9487296      0.999459794     -34.8442281                0               0                0               0
6.1048              0.0152558994      55.8849261      0.999431403     -34.9215421                0               0                0               0
6.1056               0.015112795      55.8215231      0.999402722     -34.9987113                0               0                0               0
6.1064              0.0149703948      55.7585233      0.999373758     -35.0757361                0               0                0               0
6.1072              0.0148286938      55.6959294      0.999344517     -35.1526172                0               0                0               0
6.108                0.014687687      55.6337443      0.999315008     -35.2293552                0               0                0               0
6.1088              0.0145473694      55.5719708      0.999285235     -35.3059505                0               0                0               0
6.1096              0.0144077361      55.5106123      0.999255206     -35.3824037                0               0                0               0
6.1104              0.0142687822      55.4496718      0.999224928     -35.4587155                0               0                0               0
6.1112              0.0141305028       55.389153      0.999194406     -35.5348863                0               0                0               0
6.112               0.0139928932      55.3290594      0.999163647     -35.6109168                0               0                0               0
6.1128              0.0138559486      55.2693947      0.999132658     -35.6868074                0               0                0               0
6.1136              0.0137196642      55.2101628      0.999101445     -35.7625587                0               0                0               0
6.1144              0.0135840355       55.151368      0.999070013     -35.8381714                0               0                0               0
6.1152              0.0134490578      55.0930144       0.99903837     -35.9136458                0               0                0               0
6.116               0.0133147265      55.0351064      0.999006521     -35.9889827                0               0                0               0
6.1168              0.0131810371      54.9776489      0.998974472     -36.0641825                0               0                0               0
6.1176              0.0130479851      54.9206466      0.998942229     -36.1392458                0               0                0               0
6.1184              0.0129155661      54.8641046      0.998909798     -36.2141731                0               0                0               0
6.1192              0.0127837756      54.8080281      0.998877185      -36.288965                0               0                0               0
6.12                0.0126526093      54.7524227      0.998844396     -36.3636221                0               0                0               0
6.1208              0.0125220628      54.6972941      0.998811435     -36.4381448                0               0                0               0
6.1216              0.0123921318      54.6426482       0.99877831     -36.5125337                0               0                0               0
6.1224              0.0122628121      54.5884914      0.998745026     -36.5867894                0               0                0               0
6.1232              0.0121340995        54.53483      0.998711587     -36.6609123                0               0                0               0
6.124               0.0120059898      54.4816707         0.998678     -36.7349031                0               0                0               0
6.1248              0.0118784789      54.4290207       0.99864427     -36.8087623                0               0                0               0
6.1256              0.0117515626      54.3768872      0.998610402     -36.8824904                0               0                0               0
6.1264               0.011625237      54.3252778      0.998576401     -36.9560879                0               0                0               0
6.1272              0.0114994979      54.2742005      0.998542274     -37.0295554                0               0                0               0
6.128               0.0113743414      54.2236635      0.998508024     -37.1028934                0               0                0               0
6.1288              0.0112497636      54.1736754      0.998473657     -37.1761024                0               0                0               0
6.1296              0.0111257605      54.1242451      0.998439179      -37.249183                0               0                0               0
6.1304              0.0110023283      54.0753819      0.998404594     -37.3221357                0               0                0               0
6.1312              0.0108794631      54.0270956      0.998369906     -37.3949609                0               0                0               0
6.132               0.0107571611      53.9793963      0.998335122     -37.4676594                0               0                0               0
6.1328              0.0106354186      53.9322944      0.998300245     -37.5402315                0               0                0               0
6.1336              0.0105142317      53.8858009      0.998265281     -37.6126777                0               0                0               0
6.1344              0.0103935969      53.8399273      0.998230235     -37.6849987                0               0                0               0
6.1352              0.0102735104      53.7946854       0.99819511     -37.7571949                0               0                0               0
6.136               0.0101539686      53.7500877      0.998159912     -37.8292669                0               0                0               0
6.1368              0.0100349679       53.706147      0.998124645      -37.901215                0               0                0               0
6.1376             0.00991650473      53.6628769      0.998089314       -37.97304                0               0                0               0
6.1384             0.00979857556      53.6202913      0.998053923     -38.0447423                0               0                0               0
6.1392              0.0096811769       53.578405      0.998018476     -38.1163223                0               0                0               0
6.14               0.00956430526      53.5372332      0.997982978     -38.1877807                0               0                0               0
6.1408             0.00944795722      53.4967919      0.997947434     -38.2591178                0               0                0               0
6.1416             0.00933212938      53.4570977      0.997911847     -38.3303343                0               0                0               0
6.1424             0.00921681836       53.418168      0.997876221     -38.4014306                0               0                0               0
6.1432             0.00910202082      53.3800209      0.997840562     -38.4724073                0               0                0               0
6.144              0.00898773346      53.3426755      0.997804872     -38.5432647                0               0                0               0
6.1448             0.00887395301      53.3061515      0.997769156     -38.6140035                0               0                0               0
6.1456             0.00876067621      53.2704696      0.997733418     -38.6846242                0               0                0               0
6.1464             0.00864789986      53.2356515      0.997697663     -38.7551271                0               0                0               0
6.1472             0.00853562078      53.2017198      0.997661893     -38.8255129                0               0                0               0
6.148              0.00842383581      53.1686983      0.997626112      -38.895782                0               0                0               0
6.1488             0.00831254185      53.1366117      0.997590325     -38.9659349                0               0                0               0
6.1496             0.00820173579       53.105486      0.997554536     -39.0359722                0               0                0               0
6.1504             0.00809141458      53.0753484      0.997518747     -39.1058942                0               0                0               0
6.1512             0.00798157521      53.0462275      0.997482963     -39.1757015                0               0                0               0
6.152              0.00787221467       53.018153      0.997447187     -39.2453946                0               0                0               0
6.1528                0.00776333      52.9911565      0.997411424     -39.3149739                0               0                0               0
6.1536             0.00765491828      52.9652708      0.997375675       -39.38444                0               0                0               0
6.1544             0.00754697659      52.9405304      0.997339945     -39.4537933                0               0                0               0
6.1552             0.00743950207      52.9169716      0.997304238     -39.5230343                0               0                0               0
6.156              0.00733249188      52.8946327      0.997268557     -39.5921635                0               0                0               0
6.1568             0.00722594321      52.8735536      0.997232904     -39.6611814                0               0                0               0