! TOUCHSTONE file generated by CST MICROWAVE STUDIO
! Date and time: Fri Apr 25 09:59:45 2025
! Project name: X²¨¶ÎÐý×ª·ÖÎö.cst
! Parameters = {realphi=180; phi=540; theta=3; blendraduis=2.84566; L=6; Pin=1; a=20; b=10; blendFmax=0.02; blendradius=2.85; d=5; s=4; ta=16.03; tb=10.61; totaltime=10; trh=1.69; wr=11.49; wt=0.91}
! Header version: 2018
! Port assignment regex: !\s*Touchstone port\s*([0-9]+)\s*=\s*(CST MWS port|CST DS port)\s*([0-9]+|Zmin|Zmax)\s*\(\"(.*)\"\)(\s*mode\s*([0-9]+))?.*
! Touchstone port assignment:
! Touchstone port 1 = CST MWS port 1 ("")
! Touchstone port 2 = CST MWS port 2 ("")
! S-Parameters are not renormalized. Unphysical impedance of 0 will be written to the file.
# GHz S MA R 0
6                   0.0435478276       68.230382      0.997086749     -23.2965369                0               0                0               0
6.0008              0.0435883981      68.1435391      0.997112582     -23.3693092                0               0                0               0
6.0016              0.0436290806      68.0564526      0.997138312     -23.4420436                0               0                0               0
6.0024              0.0436698755      67.9691214       0.99716394     -23.5147401                0               0                0               0
6.0032              0.0437107831      67.8815446      0.997189465     -23.5873987                0               0                0               0
6.004               0.0437518038      67.7937211      0.997214888     -23.6600195                0               0                0               0
6.0048              0.0437929379      67.7056498       0.99724021     -23.7326024                0               0                0               0
6.0056               0.043834186      67.6173296      0.997265429     -23.8051475                0               0                0               0
6.0064              0.0438755482      67.5287594      0.997290548     -23.8776546                0               0                0               0
6.0072              0.0439170251      67.4399382      0.997315565     -23.9501239                0               0                0               0
6.008               0.0439586169      67.3508649       0.99734048     -24.0225552                0               0                0               0
6.0088              0.0440003241      67.2615382      0.997365296     -24.0949487                0               0                0               0
6.0096              0.0440421471      67.1719573       0.99739001     -24.1673043                0               0                0               0
6.0104              0.0440840861      67.0821208      0.997414624      -24.239622                0               0                0               0
6.0112              0.0441261417      66.9920278      0.997439138     -24.3119018                0               0                0               0
6.012               0.0441683141       66.901677      0.997463552     -24.3841437                0               0                0               0
6.0128              0.0442106038      66.8110674      0.997487866     -24.4563477                0               0                0               0
6.0136              0.0442530111      66.7201978      0.997512081     -24.5285139                0               0                0               0
6.0144              0.0442955364      66.6290671      0.997536197     -24.6006421                0               0                0               0
6.0152              0.0443381801       66.537674      0.997560213     -24.6727324                0               0                0               0
6.016               0.0443809426      66.4460176      0.997584131     -24.7447847                0               0                0               0
6.0168              0.0444238242      66.3540965      0.997607949     -24.8167992                0               0                0               0
6.0176              0.0444668254      66.2619097       0.99763167     -24.8887758                0               0                0               0
6.0184              0.0445099464      66.1694559      0.997655292     -24.9607145                0               0                0               0
6.0192              0.0445531878       66.076734      0.997678816     -25.0326152                0               0                0               0
6.02                0.0445965498      65.9837427      0.997702243     -25.1044781                0               0                0               0
6.0208              0.0446400328       65.890481      0.997725571      -25.176303                0               0                0               0
6.0216              0.0446836373      65.7969475      0.997748803       -25.24809                0               0                0               0
6.0224              0.0447273636      65.7031411      0.997771937     -25.3198391                0               0                0               0
6.0232              0.0447712121      65.6090605      0.997794974     -25.3915503                0               0                0               0
6.024               0.0448151832      65.5147046      0.997817915     -25.4632236                0               0                0               0
6.0248              0.0448592772      65.4200721      0.997840759      -25.534859                0               0                0               0
6.0256              0.0449034946      65.3251617      0.997863507     -25.6064564                0               0                0               0
6.0264              0.0449478356      65.2299723      0.997886158      -25.678016                0               0                0               0
6.0272              0.0449923007      65.1345025      0.997908714     -25.7495376                0               0                0               0
6.028               0.0450368904      65.0387512      0.997931175     -25.8210213                0               0                0               0
6.0288              0.0450816048       64.942717      0.997953539     -25.8924671                0               0                0               0
6.0296              0.0451264445      64.8463987      0.997975809      -25.963875                0               0                0               0
6.0304              0.0451714098       64.749795      0.997997983      -26.035245                0               0                0               0
6.0312              0.0452165011      64.6529046      0.998020063      -26.106577                0               0                0               0
6.032               0.0452617187      64.5557262      0.998042048     -26.1778712                0               0                0               0
6.0328               0.045307063      64.4582586      0.998063939     -26.2491274                0               0                0               0
6.0336              0.0453525345      64.3605004      0.998085735     -26.3203458                0               0                0               0
6.0344              0.0453981335      64.2624503      0.998107438     -26.3915262                0               0                0               0
6.0352              0.0454438603      64.1641069      0.998129047     -26.4626687                0               0                0               0
6.036               0.0454897154      64.0654691      0.998150562     -26.5337733                0               0                0               0
6.0368              0.0455356991      63.9665353      0.998171984       -26.60484                0               0                0               0
6.0376              0.0455818118      63.8673044      0.998193313     -26.6758688                0               0                0               0
6.0384              0.0456280538      63.7677749      0.998214549     -26.7468597                0               0                0               0
6.0392              0.0456744256      63.6679454      0.998235693     -26.8178127                0               0                0               0
6.04                0.0457209275      63.5678147      0.998256744     -26.8887278                0               0                0               0
6.0408              0.0457675599      63.4673813      0.998277703      -26.959605                0               0                0               0
6.0416              0.0458143231      63.3666439      0.998298569     -27.0304443                0               0                0               0
6.0424              0.0458612175       63.265601      0.998319344     -27.1012457                0               0                0               0
6.0432              0.0459082435      63.1642513      0.998340027     -27.1720092                0               0                0               0
6.044               0.0459554015      63.0625933      0.998360619     -27.2427348                0               0                0               0
6.0448              0.0460026918      62.9606258       0.99838112     -27.3134226                0               0                0               0
6.0456              0.0460501147      62.8583471       0.99840153     -27.3840724                0               0                0               0
6.0464              0.0460976707       62.755756      0.998421849     -27.4546844                0               0                0               0
6.0472              0.0461453602      62.6528509      0.998442077     -27.5252585                0               0                0               0
6.048               0.0461931833      62.5496305      0.998462215     -27.5957947                0               0                0               0
6.0488              0.0462411406      62.4460933      0.998482263     -27.6662931                0               0                0               0
6.0496              0.0462892324      62.3422378      0.998502221     -27.7367535                0               0                0               0
6.0504              0.0463374591      62.2380625       0.99852209     -27.8071761                0               0                0               0
6.0512              0.0463858209       62.133566      0.998541868     -27.8775609                0               0                0               0
6.052               0.0464343183      62.0287469      0.998561558     -27.9479078                0               0                0               0
6.0528              0.0464829516      61.9236035      0.998581158     -28.0182168                0               0                0               0
6.0536              0.0465317212      61.8181344       0.99860067     -28.0884879                0               0                0               0
6.0544              0.0465806273      61.7123382      0.998620093     -28.1587212                0               0                0               0
6.0552              0.0466296704      61.6062132      0.998639428     -28.2289167                0               0                0               0
6.056               0.0466788508       61.499758      0.998658674     -28.2990743                0               0                0               0
6.0568              0.0467281689       61.392971      0.998677832     -28.3691941                0               0                0               0
6.0576              0.0467776249      61.2858507      0.998696903      -28.439276                0               0                0               0
6.0584              0.0468272192      61.1783956      0.998715885     -28.5093201                0               0                0               0
6.0592              0.0468769523       61.070604      0.998734781     -28.5793264                0               0                0               0
6.06                0.0469268243      60.9624744      0.998753589     -28.6492949                0               0                0               0
6.0608              0.0469768356      60.8540053      0.998772311     -28.7192255                0               0                0               0
6.0616              0.0470269866       60.745195      0.998790945     -28.7891183                0               0                0               0
6.0624              0.0470772775       60.636042      0.998809493     -28.8589733                0               0                0               0
6.0632              0.0471277088      60.5265446      0.998827955     -28.9287905                0               0                0               0
6.064               0.0471782807      60.4167013       0.99884633     -28.9985699                0               0                0               0
6.0648              0.0472289936      60.3065104       0.99886462     -29.0683115                0               0                0               0
6.0656              0.0472798478      60.1959703      0.998882824     -29.1380153                0               0                0               0
6.0664              0.0473308435      60.0850793      0.998900942     -29.2076813                0               0                0               0
6.0672              0.0473819811      59.9738359      0.998918975     -29.2773095                0               0                0               0
6.068                0.047433261      59.8622383      0.998936923     -29.3468999                0               0                0               0
6.0688              0.0474846833       59.750285      0.998954786     -29.4164526                0               0                0               0
6.0696              0.0475362485      59.6379741      0.998972565     -29.4859675                0               0                0               0
6.0704              0.0475879568      59.5253041      0.998990258     -29.5554446                0               0                0               0
6.0712              0.0476398085      59.4122733      0.999007868      -29.624884                0               0                0               0
6.072                0.047691804      59.2988799      0.999025394     -29.6942856                0               0                0               0
6.0728              0.0477439434      59.1851222      0.999042835     -29.7636495                0               0                0               0
6.0736              0.0477962271      59.0709985      0.999060193     -29.8329756                0               0                0               0
6.0744              0.0478486554      58.9565072      0.999077468      -29.902264                0               0                0               0
6.0752              0.0479012285      58.8416464       0.99909466     -29.9715146                0               0                0               0
6.076               0.0479539468      58.7264143      0.999111768     -30.0407276                0               0                0               0
6.0768              0.0480068105      58.6108094      0.999128793     -30.1099028                0               0                0               0
6.0776              0.0480598198      58.4948297      0.999145736     -30.1790403                0               0                0               0
6.0784               0.048112975      58.3784735      0.999162597     -30.2481401                0               0                0               0
6.0792              0.0481662765       58.261739      0.999179375     -30.3172021                0               0                0               0
6.08                0.0482197243      58.1446245      0.999196072     -30.3862265                0               0                0               0
6.0808              0.0482733189      58.0271281      0.999212686     -30.4552132                0               0                0               0
6.0816              0.0483270604      57.9092479      0.999229219     -30.5241623                0               0                0               0
6.0824              0.0483809491      57.7909823      0.999245671     -30.5930736                0               0                0               0
6.0832              0.0484349852      57.6723293      0.999262041     -30.6619473                0               0                0               0
6.084               0.0484891689       57.553287       0.99927833     -30.7307833                0               0                0               0
6.0848              0.0485435006      57.4338538      0.999294539     -30.7995817                0               0                0               0
6.0856              0.0485979803      57.3140276      0.999310667     -30.8683424                0               0                0               0
6.0864              0.0486526083      57.1938066      0.999326715     -30.9370655                0               0                0               0
6.0872              0.0487073849       57.073189      0.999342682     -31.0057509                0               0                0               0
6.088               0.0487623101      56.9521727       0.99935857     -31.0743987                0               0                0               0
6.0888              0.0488173843       56.830756      0.999374378     -31.1430089                0               0                0               0
6.0896              0.0488726077      56.7089369      0.999390106     -31.2115815                0               0                0               0
6.0904              0.0489279803      56.5867135      0.999405755     -31.2801165                0               0                0               0
6.0912              0.0489835024      56.4640838      0.999421325     -31.3486138                0               0                0               0
6.092               0.0490391742       56.341046      0.999436816     -31.4170736                0               0                0               0
6.0928              0.0490949959       56.217598      0.999452228     -31.4854958                0               0                0               0
6.0936              0.0491509675      56.0937378      0.999467562     -31.5538804                0               0                0               0
6.0944              0.0492070894      55.9694636      0.999482817     -31.6222275                0               0                0               0
6.0952              0.0492633615      55.8447733      0.999497994      -31.690537                0               0                0               0
6.096               0.0493197841      55.7196649      0.999513093     -31.7588089                0               0                0               0
6.0968              0.0493763572      55.5941365      0.999528115     -31.8270433                0               0                0               0
6.0976              0.0494330811      55.4681859      0.999543059     -31.8952402                0               0                0               0
6.0984              0.0494899558      55.3418113      0.999557925     -31.9633996                0               0                0               0
6.0992              0.0495469815      55.2150104      0.999572715     -32.0315214                0               0                0               0
6.1                 0.0496041583      55.0877814      0.999587427     -32.0996057                0               0                0               0
6.1008              0.0496614862      54.9601221      0.999602063     -32.1676525                0               0                0               0
6.1016              0.0497189654      54.8320304      0.999616622     -32.2356618                0               0                0               0
6.1024              0.0497765959      54.7035043      0.999631105     -32.3036336                0               0                0               0
6.1032              0.0498343779      54.5745417      0.999645512      -32.371568                0               0                0               0
6.104               0.0498923113      54.4451405      0.999659843     -32.4394649                0               0                0               0
6.1048              0.0499503963      54.3152985      0.999674099     -32.5073243                0               0                0               0
6.1056              0.0500086328      54.1850137      0.999688278     -32.5751463                0               0                0               0
6.1064               0.050067021      54.0542839      0.999702383     -32.6429308                0               0                0               0
6.1072              0.0501255609       53.923107      0.999716412     -32.7106779                0               0                0               0
6.108               0.0501842525      53.7914808      0.999730366     -32.7783876                0               0                0               0
6.1088              0.0502430957      53.6594031      0.999744246     -32.8460599                0               0                0               0
6.1096              0.0503020907      53.5268718      0.999758051     -32.9136947                0               0                0               0
6.1104              0.0503612373      53.3938846      0.999771781     -32.9812922                0               0                0               0
6.1112              0.0504205357      53.2604395      0.999785438     -33.0488523                0               0                0               0
6.112               0.0504799857      53.1265341      0.999799021      -33.116375                0               0                0               0
6.1128              0.0505395873      52.9921662       0.99981253     -33.1838603                0               0                0               0
6.1136              0.0505993405      52.8573337      0.999825965     -33.2513083                0               0                0               0
6.1144              0.0506592452      52.7220342      0.999839327      -33.318719                0               0                0               0
6.1152              0.0507193013      52.5862656      0.999852616     -33.3860923                0               0                0               0
6.116               0.0507795088      52.4500255      0.999865832     -33.4534282                0               0                0               0
6.1168              0.0508398676      52.3133116      0.999878975     -33.5207269                0               0                0               0
6.1176              0.0509003775      52.1761218      0.999892045     -33.5879882                0               0                0               0
6.1184              0.0509610385      52.0384536      0.999905044     -33.6552123                0               0                0               0
6.1192              0.0510218504      51.9003049       0.99991797      -33.722399                0               0                0               0
6.12                0.0510828131      51.7616731      0.999930824     -33.7895485                0               0                0               0
6.1208              0.0511439265      51.6225562      0.999943606     -33.8566608                0               0                0               0
6.1216              0.0512051903      51.4829515      0.999956317     -33.9237357                0               0                0               0
6.1224              0.0512666043       51.342857      0.999968956     -33.9907734                0               0                0               0
6.1232              0.0513281685        51.20227      0.999981524     -34.0577739                0               0                0               0
6.124               0.0513898825      51.0611884      0.999994021     -34.1247372                0               0                0               0
6.1248              0.0514517463      50.9196097                1     -34.1916632                0               0                0               0
6.1256              0.0515137594      50.7775314                1      -34.258552                0               0                0               0
6.1264              0.0515759217      50.6349513                1     -34.3254037                0               0                0               0
6.1272               0.051638233      50.4918668                1     -34.3922182                0               0                0               0
6.128               0.0517006929      50.3482756                1     -34.4589955                0               0                0               0
6.1288              0.0517633012      50.2041752                1     -34.5257356                0               0                0               0
6.1296              0.0518260575      50.0595631                1     -34.5924386                0               0                0               0
6.1304              0.0518889615      49.9144369                1     -34.6591044                0               0                0               0
6.1312              0.0519520129      49.7687941                1     -34.7257331                0               0                0               0
6.132               0.0520152113      49.6226323                1     -34.7923248                0               0                0               0
6.1328              0.0520785564      49.4759488                1     -34.8588793                0               0                0               0
6.1336              0.0521420478      49.3287413                1     -34.9253967                0               0                0               0
6.1344               0.052205685      49.1810072                1      -34.991877                0               0                0               0
6.1352              0.0522694677      49.0327439                1     -35.0583203                0               0                0               0
6.136               0.0523333954      48.8839489                1     -35.1247265                0               0                0               0
6.1368              0.0523974676      48.7346198                1     -35.1910956                0               0                0               0
6.1376              0.0524616838      48.5847538                1     -35.2574278                0               0                0               0
6.1384              0.0525260437      48.4343485                1     -35.3237229                0               0                0               0
6.1392              0.0525905466      48.2834012                1      -35.389981                0               0                0               0
6.14                 0.052655192      48.1319094                1     -35.4562021                0               0                0               0
6.1408              0.0527199793      47.9798704                1     -35.5223862                0               0                0               0
6.1416              0.0527849081      47.8272817                1     -35.5885333                0               0                0               0
6.1424              0.0528499777      47.6741406                1     -35.6546435                0               0                0               0
6.1432              0.0529151874      47.5204444                1     -35.7207167                0               0                0               0
6.144               0.0529805368      47.3661906                1      -35.786753                0               0                0               0
6.1448               0.053046025      47.2113764                1     -35.8527524                0               0                0               0
6.1456              0.0531116514      47.0559992                1     -35.9187148                0               0                0               0
6.1464              0.0531774154      46.9000564                1     -35.9846404                0               0                0               0
6.1472              0.0532433161      46.7435452                1     -36.0505291                0               0                0               0
6.148               0.0533093529      46.5864629                1     -36.1163809                0               0                0               0
6.1488               0.053375525      46.4288068                1     -36.1821958                0               0                0               0
6.1496              0.0534418316      46.2705742                1     -36.2479739                0               0                0               0
6.1504              0.0535082719      46.1117624                1     -36.3137151                0               0                0               0
6.1512               0.053574845      45.9523686                1     -36.3794196                0               0                0               0
6.152               0.0536415501      45.7923901                1     -36.4450872                0               0                0               0
6.1528              0.0537083863      45.6318242                1      -36.510718                0               0                0               0
6.1536              0.0537753527      45.4706679                1      -36.576312                0               0                0               0
6.1544              0.0538424484      45.3089187                1     -36.6418693                0               0                0               0
6.1552              0.0539096723      45.1465737                1     -36.7073898                0               0                0               0
6.156               0.0539770235        44.98363                1     -36.7728736                0               0                0               0
6.1568               0.054044501      44.8200849                1     -36.8383206                0               0                0               0