! TOUCHSTONE file generated by CST MICROWAVE STUDIO
! Date and time: Fri Apr 25 09:59:44 2025
! Project name: X²¨¶ÎÐý×ª·ÖÎö.cst
! Parameters = {realphi=135; phi=495; theta=3; blendraduis=2.84566; L=6; Pin=1; a=20; b=10; blendFmax=0.02; blendradius=2.85; d=5; s=4; ta=16.03; tb=10.61; totaltime=10; trh=1.69; wr=11.49; wt=0.91}
! Header version: 2018
! Port assignment regex: !\s*Touchstone port\s*([0-9]+)\s*=\s*(CST MWS port|CST DS port)\s*([0-9]+|Zmin|Zmax)\s*\(\"(.*)\"\)(\s*mode\s*([0-9]+))?.*
! Touchstone port assignment:
! Touchstone port 1 = CST MWS port 1 ("")
! Touchstone port 2 = CST MWS port 2 ("")
! S-Parameters are not renormalized. Unphysical impedance of 0 will be written to the file.
# GHz S MA R 0
6                   0.0467023921      66.1304776      0.996952723     -23.2041993                0               0                0               0
6.0008              0.0467272811      66.0477863      0.996972856      -23.282681                0               0                0               0
6.0016              0.0467521823      65.9648809      0.996992897     -23.3610983                0               0                0               0
6.0024              0.0467770956      65.8817608      0.997012846     -23.4394513                0               0                0               0
6.0032              0.0468020207      65.7984251      0.997032705       -23.51774                0               0                0               0
6.004               0.0468269573       65.714873      0.997052473     -23.5959645                0               0                0               0
6.0048              0.0468519054      65.6311039       0.99707215     -23.6741249                0               0                0               0
6.0056              0.0468768645      65.5471168      0.997091737     -23.7522213                0               0                0               0
6.0064              0.0469018346      65.4629111      0.997111234     -23.8302537                0               0                0               0
6.0072              0.0469268154      65.3784859      0.997130642     -23.9082221                0               0                0               0
6.008               0.0469518066      65.2938404       0.99714996     -23.9861268                0               0                0               0
6.0088               0.046976808      65.2089739       0.99716919     -24.0639676                0               0                0               0
6.0096              0.0470018194      65.1238856       0.99718833     -24.1417447                0               0                0               0
6.0104              0.0470268405      65.0385746      0.997207382     -24.2194582                0               0                0               0
6.0112              0.0470518711      64.9530402      0.997226346     -24.2971081                0               0                0               0
6.012               0.0470769109      64.8672816      0.997245221     -24.3746945                0               0                0               0
6.0128              0.0471019597       64.781298      0.997264009     -24.4522174                0               0                0               0
6.0136              0.0471270172      64.6950885       0.99728271      -24.529677                0               0                0               0
6.0144              0.0471520832      64.6086523      0.997301324     -24.6070732                0               0                0               0
6.0152              0.0471771574      64.5219887       0.99731985     -24.6844062                0               0                0               0
6.016               0.0472022395      64.4350968      0.997338291     -24.7616761                0               0                0               0
6.0168              0.0472273293      64.3479758      0.997356644     -24.8388828                0               0                0               0
6.0176              0.0472524265      64.2606249      0.997374912     -24.9160265                0               0                0               0
6.0184              0.0472775309      64.1730432      0.997393095     -24.9931071                0               0                0               0
6.0192              0.0473026421      64.0852299      0.997411191     -25.0701249                0               0                0               0
6.02                0.0473277598      63.9971842      0.997429203     -25.1470799                0               0                0               0
6.0208              0.0473528839      63.9089053      0.997447129     -25.2239721                0               0                0               0
6.0216              0.0473780139      63.8203922      0.997464971     -25.3008015                0               0                0               0
6.0224              0.0474031497      63.7316443      0.997482729     -25.3775683                0               0                0               0
6.0232              0.0474282909      63.6426606      0.997500402     -25.4542726                0               0                0               0
6.024               0.0474534372      63.5534402      0.997517992     -25.5309144                0               0                0               0
6.0248              0.0474785883      63.4639824      0.997535498     -25.6074937                0               0                0               0
6.0256               0.047503744      63.3742863      0.997552921     -25.6840106                0               0                0               0
6.0264              0.0475289038       63.284351      0.997570261     -25.7604653                0               0                0               0
6.0272              0.0475540676      63.1941757      0.997587518     -25.8368577                0               0                0               0
6.028               0.0475792349      63.1037594      0.997604693     -25.9131879                0               0                0               0
6.0288              0.0476044055      63.0131014      0.997621785      -25.989456                0               0                0               0
6.0296              0.0476295791      62.9222008      0.997638795     -26.0656621                0               0                0               0
6.0304              0.0476547552      62.8310567      0.997655724     -26.1418063                0               0                0               0
6.0312              0.0476799337      62.7396682      0.997672571     -26.2178885                0               0                0               0
6.032               0.0477051141      62.6480344      0.997689337     -26.2939089                0               0                0               0
6.0328              0.0477302961      62.5561545      0.997706023     -26.3698676                0               0                0               0
6.0336              0.0477554794      62.4640276      0.997722627     -26.4457645                0               0                0               0
6.0344              0.0477806636      62.3716528      0.997739152     -26.5215998                0               0                0               0
6.0352              0.0478058485      62.2790292      0.997755596     -26.5973736                0               0                0               0
6.036               0.0478310335      62.1861559       0.99777196     -26.6730858                0               0                0               0
6.0368              0.0478562185       62.093032      0.997788245     -26.7487367                0               0                0               0
6.0376              0.0478814029      61.9996567       0.99780445     -26.8243261                0               0                0               0
6.0384              0.0479065865      61.9060289      0.997820577     -26.8998543                0               0                0               0
6.0392              0.0479317689      61.8121479      0.997836624     -26.9753213                0               0                0               0
6.04                0.0479569497      61.7180127      0.997852593     -27.0507271                0               0                0               0
6.0408              0.0479821285      61.6236224      0.997868484     -27.1260718                0               0                0               0
6.0416               0.048007305      61.5289761      0.997884297     -27.2013555                0               0                0               0
6.0424              0.0480324788      61.4340728      0.997900031     -27.2765782                0               0                0               0
6.0432              0.0480576495      61.3389117      0.997915689       -27.35174                0               0                0               0
6.044               0.0480828166      61.2434918      0.997931269      -27.426841                0               0                0               0
6.0448              0.0481079798      61.1478122      0.997946772     -27.5018813                0               0                0               0
6.0456              0.0481331387      61.0518719      0.997962199     -27.5768609                0               0                0               0
6.0464              0.0481582929      60.9556702      0.997977548     -27.6517799                0               0                0               0
6.0472               0.048183442      60.8592059      0.997992822     -27.7266383                0               0                0               0
6.048               0.0482085856      60.7624781       0.99800802     -27.8014362                0               0                0               0
6.0488              0.0482337231       60.665486      0.998023142     -27.8761737                0               0                0               0
6.0496              0.0482588543      60.5682286      0.998038188     -27.9508509                0               0                0               0
6.0504              0.0482839787      60.4707048      0.998053159     -28.0254677                0               0                0               0
6.0512              0.0483090958      60.3729139      0.998068056     -28.1000244                0               0                0               0
6.052               0.0483342053      60.2748548      0.998082877     -28.1745209                0               0                0               0
6.0528              0.0483593066      60.1765266      0.998097624     -28.2489573                0               0                0               0
6.0536              0.0483843993      60.0779282      0.998112297     -28.3233338                0               0                0               0
6.0544               0.048409483      59.9790588      0.998126896     -28.3976502                0               0                0               0
6.0552              0.0484345572      59.8799174      0.998141421     -28.4719068                0               0                0               0
6.056               0.0484596215       59.780503      0.998155872     -28.5461036                0               0                0               0
6.0568              0.0484846754      59.6808146      0.998170251     -28.6202407                0               0                0               0
6.0576              0.0485097184      59.5808513      0.998184556      -28.694318                0               0                0               0
6.0584                0.04853475      59.4806121      0.998198789     -28.7683358                0               0                0               0
6.0592              0.0485597698       59.380096      0.998212949      -28.842294                0               0                0               0
6.06                0.0485847772       59.279302      0.998227037     -28.9161927                0               0                0               0
6.0608              0.0486097719      59.1782292      0.998241052     -28.9900321                0               0                0               0
6.0616              0.0486347532      59.0768765      0.998254996     -29.0638121                0               0                0               0
6.0624              0.0486597207      58.9752429      0.998268869     -29.1375328                0               0                0               0
6.0632              0.0486846739      58.8733275       0.99828267     -29.2111943                0               0                0               0
6.064               0.0487096122      58.7711292        0.9982964     -29.2847966                0               0                0               0
6.0648              0.0487345352      58.6686471      0.998310059     -29.3583399                0               0                0               0
6.0656              0.0487594423      58.5658802      0.998323648     -29.4318242                0               0                0               0
6.0664               0.048784333      58.4628274      0.998337166     -29.5052496                0               0                0               0
6.0672              0.0488092068      58.3594877      0.998350615     -29.5786161                0               0                0               0
6.068               0.0488340631      58.2558602      0.998363993     -29.6519238                0               0                0               0
6.0688              0.0488589014      58.1519437      0.998377302     -29.7251727                0               0                0               0
6.0696              0.0488837211      58.0477374      0.998390541      -29.798363                0               0                0               0
6.0704              0.0489085216      57.9432401      0.998403712     -29.8714946                0               0                0               0
6.0712              0.0489333025      57.8384508      0.998416813     -29.9445678                0               0                0               0
6.072               0.0489580631      57.7333685      0.998429846     -30.0175824                0               0                0               0
6.0728              0.0489828029      57.6279922       0.99844281     -30.0905387                0               0                0               0
6.0736              0.0490075213      57.5223209      0.998455706     -30.1634366                0               0                0               0
6.0744              0.0490322177      57.4163534      0.998468534     -30.2362763                0               0                0               0
6.0752              0.0490568915      57.3100888      0.998481294     -30.3090577                0               0                0               0
6.076               0.0490815422      57.2035261      0.998493987     -30.3817811                0               0                0               0
6.0768               0.049106169      57.0966641      0.998506613     -30.4544463                0               0                0               0
6.0776              0.0491307715      56.9895019      0.998519171     -30.5270536                0               0                0               0
6.0784               0.049155349      56.8820383      0.998531663     -30.5996029                0               0                0               0
6.0792              0.0491799008      56.7742723      0.998544088     -30.6720944                0               0                0               0
6.08                0.0492044264       56.666203      0.998556447      -30.744528                0               0                0               0
6.0808              0.0492289251      56.5578291       0.99856874     -30.8169039                0               0                0               0
6.0816              0.0492533963      56.4491497      0.998580966     -30.8892222                0               0                0               0
6.0824              0.0492778393      56.3401636      0.998593127     -30.9614829                0               0                0               0
6.0832              0.0493022536      56.2308699      0.998605223      -31.033686                0               0                0               0
6.084               0.0493266383      56.1212674      0.998617253     -31.1058316                0               0                0               0
6.0848              0.0493509929      56.0113551      0.998629219     -31.1779199                0               0                0               0
6.0856              0.0493753167      55.9011319      0.998641119     -31.2499508                0               0                0               0
6.0864              0.0493996091      55.7905968      0.998652956     -31.3219245                0               0                0               0
6.0872              0.0494238692      55.6797485      0.998664727     -31.3938409                0               0                0               0
6.088               0.0494480965      55.5685861      0.998676435     -31.4657003                0               0                0               0
6.0888              0.0494722903      55.4571085      0.998688079     -31.5375025                0               0                0               0
6.0896              0.0494964498      55.3453145      0.998699659     -31.6092478                0               0                0               0
6.0904              0.0495205743      55.2332032      0.998711176     -31.6809361                0               0                0               0
6.0912              0.0495446632      55.1207733       0.99872263     -31.7525675                0               0                0               0
6.092               0.0495687156      55.0080239       0.99873402     -31.8241422                0               0                0               0
6.0928              0.0495927309      54.8949537      0.998745348     -31.8956601                0               0                0               0
6.0936              0.0496167084      54.7815618      0.998756613     -31.9671214                0               0                0               0
6.0944              0.0496406472      54.6678469      0.998767816      -32.038526                0               0                0               0
6.0952              0.0496645467       54.553808      0.998778957     -32.1098741                0               0                0               0
6.096                0.049688406      54.4394441      0.998790036     -32.1811658                0               0                0               0
6.0968              0.0497122244      54.3247538      0.998801054      -32.252401                0               0                0               0
6.0976              0.0497360012      54.2097363       0.99881201     -32.3235799                0               0                0               0
6.0984              0.0497597356      54.0943903      0.998822904     -32.3947026                0               0                0               0
6.0992              0.0497834267      53.9787147      0.998833738      -32.465769                0               0                0               0
6.1                 0.0498070738      53.8627084      0.998844511     -32.5367793                0               0                0               0
6.1008               0.049830676      53.7463703      0.998855223     -32.6077335                0               0                0               0
6.1016              0.0498542327      53.6296993      0.998865875     -32.6786317                0               0                0               0
6.1024              0.0498777429      53.5126942      0.998876467      -32.749474                0               0                0               0
6.1032              0.0499012058      53.3953539      0.998886999     -32.8202604                0               0                0               0
6.104               0.0499246206      53.2776773      0.998897471      -32.890991                0               0                0               0
6.1048              0.0499479865      53.1596632      0.998907883     -32.9616658                0               0                0               0
6.1056              0.0499713025      53.0413105      0.998918236      -33.032285                0               0                0               0
6.1064               0.049994568      52.9226181      0.998928531     -33.1028486                0               0                0               0
6.1072              0.0500177819      52.8035848      0.998938766     -33.1733566                0               0                0               0
6.108               0.0500409435      52.6842095      0.998948943     -33.2438091                0               0                0               0
6.1088              0.0500640518       52.564491      0.998959061     -33.3142063                0               0                0               0
6.1096               0.050087106      52.4444283      0.998969121     -33.3845481                0               0                0               0
6.1104              0.0501101051      52.3240201      0.998979123     -33.4548346                0               0                0               0
6.1112              0.0501330483      52.2032653      0.998989067     -33.5250659                0               0                0               0
6.112               0.0501559347      52.0821627      0.998998953      -33.595242                0               0                0               0
6.1128              0.0501787634      51.9607113      0.999008782      -33.665363                0               0                0               0
6.1136              0.0502015333      51.8389097      0.999018554     -33.7354291                0               0                0               0
6.1144              0.0502242437       51.716757      0.999028268     -33.8054402                0               0                0               0
6.1152              0.0502468934      51.5942519      0.999037926     -33.8753964                0               0                0               0
6.116               0.0502694817      51.4713933      0.999047528     -33.9452978                0               0                0               0
6.1168              0.0502920075        51.34818      0.999057073     -34.0151444                0               0                0               0
6.1176              0.0503144699      51.2246108      0.999066561     -34.0849363                0               0                0               0
6.1184              0.0503368679      51.1006846      0.999075994     -34.1546736                0               0                0               0
6.1192              0.0503592006      50.9764003      0.999085371     -34.2243564                0               0                0               0
6.12                0.0503814668      50.8517566      0.999094692     -34.2939846                0               0                0               0
6.1208              0.0504036657      50.7267523      0.999103958     -34.3635584                0               0                0               0
6.1216              0.0504257962      50.6013864      0.999113169     -34.4330779                0               0                0               0
6.1224              0.0504478573      50.4756576      0.999122325     -34.5025431                0               0                0               0
6.1232              0.0504698479      50.3495648      0.999131426      -34.571954                0               0                0               0
6.124               0.0504917671      50.2231068      0.999140472     -34.6413108                0               0                0               0
6.1248              0.0505136139      50.0962824      0.999149464     -34.7106134                0               0                0               0
6.1256               0.050535387      49.9690904      0.999158402     -34.7798621                0               0                0               0
6.1264              0.0505570856      49.8415297      0.999167286     -34.8490567                0               0                0               0
6.1272              0.0505787084      49.7135992      0.999176116     -34.9181975                0               0                0               0
6.128               0.0506002546      49.5852975      0.999184892     -34.9872844                0               0                0               0
6.1288              0.0506217228      49.4566235      0.999193615     -35.0563175                0               0                0               0
6.1296              0.0506431122      49.3275761      0.999202285     -35.1252969                0               0                0               0
6.1304              0.0506644215      49.1981541      0.999210902     -35.1942227                0               0                0               0
6.1312              0.0506856496      49.0683562      0.999219466     -35.2630948                0               0                0               0
6.132               0.0507067955      48.9381813      0.999227977     -35.3319135                0               0                0               0
6.1328              0.0507278579      48.8076283      0.999236436     -35.4006787                0               0                0               0
6.1336              0.0507488358      48.6766959      0.999244843     -35.4693905                0               0                0               0
6.1344               0.050769728      48.5453829      0.999253197      -35.538049                0               0                0               0
6.1352              0.0507905334      48.4136882        0.9992615     -35.6066543                0               0                0               0
6.136               0.0508112507      48.2816106      0.999269751     -35.6752063                0               0                0               0
6.1368              0.0508318788      48.1491489      0.999277951     -35.7437052                0               0                0               0
6.1376              0.0508524165      48.0163018      0.999286099     -35.8121511                0               0                0               0
6.1384              0.0508728627      47.8830683      0.999294196     -35.8805439                0               0                0               0
6.1392               0.050893216      47.7494471      0.999302243     -35.9488838                0               0                0               0
6.14                0.0509134754      47.6154371      0.999310238     -36.0171709                0               0                0               0
6.1408              0.0509336395       47.481037      0.999318184     -36.0854051                0               0                0               0
6.1416              0.0509537071      47.3462456      0.999326078     -36.1535866                0               0                0               0
6.1424               0.050973677      47.2110619      0.999333923     -36.2217154                0               0                0               0
6.1432               0.050993548      47.0754845      0.999341717     -36.2897916                0               0                0               0
6.144               0.0510133187      46.9395123      0.999349462     -36.3578152                0               0                0               0
6.1448               0.051032988      46.8031441      0.999357158     -36.4257864                0               0                0               0
6.1456              0.0510525545      46.6663788      0.999364803     -36.4937051                0               0                0               0
6.1464              0.0510720169      46.5292151        0.9993724     -36.5615715                0               0                0               0
6.1472              0.0510913739      46.3916519      0.999379947     -36.6293856                0               0                0               0
6.148               0.0511106243      46.2536879      0.999387446     -36.6971475                0               0                0               0
6.1488              0.0511297666       46.115322      0.999394896     -36.7648571                0               0                0               0
6.1496              0.0511487997       45.976553      0.999402298     -36.8325147                0               0                0               0
6.1504               0.051167722      45.8373797      0.999409651     -36.9001203                0               0                0               0
6.1512              0.0511865324       45.697801      0.999416956     -36.9676738                0               0                0               0
6.152               0.0512052293      45.5578156      0.999424213     -37.0351755                0               0                0               0
6.1528              0.0512238116      45.4174223      0.999431422     -37.1026253                0               0                0               0
6.1536              0.0512422777      45.2766201      0.999438584     -37.1700233                0               0                0               0
6.1544              0.0512606262      45.1354076      0.999445698     -37.2373697                0               0                0               0
6.1552              0.0512788559      44.9937838      0.999452766     -37.3046643                0               0                0               0
6.156               0.0512969653      44.8517475      0.999459786     -37.3719074                0               0                0               0
6.1568              0.0513149529      44.7092974      0.999466759     -37.4390989                0               0                0               0