! TOUCHSTONE file generated by CST MICROWAVE STUDIO
! Date and time: Fri Apr 25 09:59:43 2025
! Project name: X²¨¶ÎÐý×ª·ÖÎö.cst
! Parameters = {realphi=0; phi=360; theta=3; blendraduis=2.84566; L=6; Pin=1; a=20; b=10; blendFmax=0.02; blendradius=2.85; d=5; s=4; ta=16.03; tb=10.61; totaltime=10; trh=1.69; wr=11.49; wt=0.91}
! Header version: 2018
! Port assignment regex: !\s*Touchstone port\s*([0-9]+)\s*=\s*(CST MWS port|CST DS port)\s*([0-9]+|Zmin|Zmax)\s*\(\"(.*)\"\)(\s*mode\s*([0-9]+))?.*
! Touchstone port assignment:
! Touchstone port 1 = CST MWS port 1 ("")
! Touchstone port 2 = CST MWS port 2 ("")
! S-Parameters are not renormalized. Unphysical impedance of 0 will be written to the file.
# GHz S MA R 0
6                   0.0437834231      66.3187906      0.997076373     -23.2858476                0               0                0               0
6.0008              0.0438249965      66.2310422      0.997104053     -23.3582754                0               0                0               0
6.0016              0.0438666856      66.1430484      0.997131623     -23.4306667                0               0                0               0
6.0024              0.0439084907       66.054808      0.997159083     -23.5030217                0               0                0               0
6.0032              0.0439504121      65.9663201      0.997186434     -23.5753403                0               0                0               0
6.004               0.0439924503      65.8775835      0.997213676     -23.6476225                0               0                0               0
6.0048              0.0440346056      65.7885972      0.997240808     -23.7198683                0               0                0               0
6.0056              0.0440768785      65.6993601      0.997267832     -23.7920776                0               0                0               0
6.0064              0.0441192693       65.609871      0.997294747     -23.8642505                0               0                0               0
6.0072              0.0441617784       65.520129      0.997321553      -23.936387                0               0                0               0
6.008               0.0442044062      65.4301329      0.997348252     -24.0084871                0               0                0               0
6.0088              0.0442471531      65.3398815      0.997374842     -24.0805507                0               0                0               0
6.0096              0.0442900195      65.2493738      0.997401325     -24.1525778                0               0                0               0
6.0104              0.0443330058      65.1586087      0.997427701     -24.2245686                0               0                0               0
6.0112              0.0443761123       65.067585      0.997453969     -24.2965228                0               0                0               0
6.012               0.0444193395      64.9763016       0.99748013     -24.3684406                0               0                0               0
6.0128              0.0444626877      64.8847573      0.997506185     -24.4403219                0               0                0               0
6.0136              0.0445061573      64.7929511      0.997532133     -24.5121668                0               0                0               0
6.0144              0.0445497488      64.7008817      0.997557974     -24.5839752                0               0                0               0
6.0152              0.0445934625       64.608548       0.99758371     -24.6557471                0               0                0               0
6.016               0.0446372988      64.5159488      0.997609339     -24.7274825                0               0                0               0
6.0168              0.0446812581       64.423083      0.997634863     -24.7991814                0               0                0               0
6.0176              0.0447253408      64.3299494      0.997660282     -24.8708438                0               0                0               0
6.0184              0.0447695472      64.2365468      0.997685595     -24.9424698                0               0                0               0
6.0192              0.0448138779       64.142874      0.997710803     -25.0140592                0               0                0               0
6.02                0.0448583331      64.0489298      0.997735907     -25.0856121                0               0                0               0
6.0208              0.0449029132       63.954713      0.997760906     -25.1571286                0               0                0               0
6.0216              0.0449476187      63.8602225        0.9977858     -25.2286085                0               0                0               0
6.0224                0.04499245      63.7654569      0.997810591     -25.3000519                0               0                0               0
6.0232              0.0450374074      63.6704151      0.997835278     -25.3714587                0               0                0               0
6.024               0.0450824913      63.5750958      0.997859861     -25.4428291                0               0                0               0
6.0248              0.0451277022      63.4794978      0.997884341     -25.5141629                0               0                0               0
6.0256              0.0451730403      63.3836199      0.997908717     -25.5854602                0               0                0               0
6.0264              0.0452185062      63.2874608      0.997932991      -25.656721                0               0                0               0
6.0272              0.0452641001      63.1910192      0.997957162     -25.7279452                0               0                0               0
6.028               0.0453098225      63.0942939       0.99798123     -25.7991329                0               0                0               0
6.0288              0.0453556738      62.9972836      0.998005196     -25.8702841                0               0                0               0
6.0296              0.0454016544      62.8999871       0.99802906     -25.9413987                0               0                0               0
6.0304              0.0454477646       62.802403      0.998052822     -26.0124767                0               0                0               0
6.0312              0.0454940048      62.7045301      0.998076483     -26.0835183                0               0                0               0
6.032               0.0455403755       62.606367      0.998100042     -26.1545232                0               0                0               0
6.0328               0.045586877      62.5079124        0.9981235     -26.2254916                0               0                0               0
6.0336              0.0456335097      62.4091651      0.998146857     -26.2964235                0               0                0               0
6.0344               0.045680274      62.3101238      0.998170114     -26.3673188                0               0                0               0
6.0352              0.0457271703       62.210787       0.99819327     -26.4381776                0               0                0               0
6.036                0.045774199      62.1111534      0.998216325     -26.5089998                0               0                0               0
6.0368              0.0458213604      62.0112218      0.998239281     -26.5797854                0               0                0               0
6.0376              0.0458686549      61.9109907      0.998262137     -26.6505345                0               0                0               0
6.0384               0.045916083      61.8104588      0.998284893      -26.721247                0               0                0               0
6.0392               0.045963645      61.7096248       0.99830755     -26.7919229                0               0                0               0
6.04                0.0460113412      61.6084872      0.998330108     -26.8625623                0               0                0               0
6.0408              0.0460591721      61.5070447      0.998352567     -26.9331651                0               0                0               0
6.0416              0.0461071381      61.4052959      0.998374927     -27.0037313                0               0                0               0
6.0424              0.0461552395      61.3032394      0.998397188      -27.074261                0               0                0               0
6.0432              0.0462034767      61.2008738      0.998419352      -27.144754                0               0                0               0
6.044               0.0462518501      61.0981976      0.998441417     -27.2152106                0               0                0               0
6.0448                0.04630036      60.9952096      0.998463385     -27.2856305                0               0                0               0
6.0456              0.0463490069      60.8919082      0.998485255     -27.3560139                0               0                0               0
6.0464               0.046397791      60.7882919      0.998507027     -27.4263607                0               0                0               0
6.0472              0.0464467129      60.6843595      0.998528703     -27.4966709                0               0                0               0
6.048               0.0464957728      60.5801093      0.998550281     -27.5669446                0               0                0               0
6.0488              0.0465449711        60.47554      0.998571763     -27.6371816                0               0                0               0
6.0496              0.0465943082      60.3706501      0.998593149     -27.7073821                0               0                0               0
6.0504              0.0466437844      60.2654381      0.998614438     -27.7775461                0               0                0               0
6.0512              0.0466934002      60.1599025      0.998635631     -27.8476734                0               0                0               0
6.052               0.0467431558      60.0540419      0.998656729     -27.9177642                0               0                0               0
6.0528              0.0467930517      59.9478547       0.99867773     -27.9878184                0               0                0               0
6.0536              0.0468430882      59.8413394      0.998698637      -28.057836                0               0                0               0
6.0544              0.0468932656      59.7344945      0.998719448     -28.1278171                0               0                0               0
6.0552              0.0469435844      59.6273185      0.998740165     -28.1977616                0               0                0               0
6.056               0.0469940448      59.5198099      0.998760786     -28.2676695                0               0                0               0
6.0568              0.0470446472      59.4119671      0.998781314     -28.3375408                0               0                0               0
6.0576               0.047095392      59.3037886      0.998801747     -28.4073756                0               0                0               0
6.0584              0.0471462795      59.1952728      0.998822085     -28.4771738                0               0                0               0
6.0592              0.0471973101      59.0864181      0.998842331     -28.5469355                0               0                0               0
6.06                0.0472484841       58.977223      0.998862482     -28.6166605                0               0                0               0
6.0608              0.0472998018      58.8676859       0.99888254      -28.686349                0               0                0               0
6.0616              0.0473512636      58.7578052      0.998902506      -28.756001                0               0                0               0
6.0624              0.0474028699      58.6475793      0.998922378     -28.8256164                0               0                0               0
6.0632              0.0474546208      58.5370066      0.998942157     -28.8951952                0               0                0               0
6.064               0.0475065169      58.4260854      0.998961844     -28.9647374                0               0                0               0
6.0648              0.0475585583      58.3148142      0.998981439     -29.0342431                0               0                0               0
6.0656              0.0476107455      58.2031912      0.999000942     -29.1037123                0               0                0               0
6.0664              0.0476630788       58.091215      0.999020352     -29.1731449                0               0                0               0
6.0672              0.0477155584      57.9788837      0.999039672     -29.2425409                0               0                0               0
6.068               0.0477681847      57.8661958        0.9990589     -29.3119004                0               0                0               0
6.0688               0.047820958      57.7531495      0.999078036     -29.3812233                0               0                0               0
6.0696              0.0478738786      57.6397432      0.999097082     -29.4505097                0               0                0               0
6.0704              0.0479269468      57.5259753      0.999116037     -29.5197596                0               0                0               0
6.0712               0.047980163      57.4118439      0.999134902     -29.5889729                0               0                0               0
6.072               0.0480335273      57.2973474      0.999153676     -29.6581496                0               0                0               0
6.0728              0.0480870402      57.1824841       0.99917236     -29.7272899                0               0                0               0
6.0736              0.0481407019      57.0672523      0.999190954     -29.7963936                0               0                0               0
6.0744              0.0481945126      56.9516501      0.999209459     -29.8654607                0               0                0               0
6.0752              0.0482484727      56.8356759      0.999227874     -29.9344914                0               0                0               0
6.076               0.0483025825      56.7193279        0.9992462     -30.0034855                0               0                0               0
6.0768              0.0483568422      56.6026044      0.999264437     -30.0724431                0               0                0               0
6.0776              0.0484112521      56.4855035      0.999282586     -30.1413642                0               0                0               0
6.0784              0.0484658125      56.3680236      0.999300646     -30.2102487                0               0                0               0
6.0792              0.0485205236      56.2501627      0.999318617     -30.2790968                0               0                0               0
6.08                0.0485753856      56.1319191        0.9993365     -30.3479083                0               0                0               0
6.0808              0.0486303989      56.0132909      0.999354296     -30.4166834                0               0                0               0
6.0816              0.0486855637      55.8942765      0.999372004     -30.4854219                0               0                0               0
6.0824              0.0487408802      55.7748738      0.999389624     -30.5541239                0               0                0               0
6.0832              0.0487963487      55.6550812      0.999407157     -30.6227895                0               0                0               0
6.084               0.0488519694      55.5348966      0.999424603     -30.6914185                0               0                0               0
6.0848              0.0489077425      55.4143184      0.999441962     -30.7600111                0               0                0               0
6.0856              0.0489636682      55.2933445      0.999459235     -30.8285672                0               0                0               0
6.0864              0.0490197468      55.1719732      0.999476421     -30.8970868                0               0                0               0
6.0872              0.0490759785      55.0502024      0.999493522     -30.9655699                0               0                0               0
6.088               0.0491323635      54.9280304      0.999510536     -31.0340166                0               0                0               0
6.0888              0.0491889019      54.8054553      0.999527464     -31.1024268                0               0                0               0
6.0896               0.049245594       54.682475      0.999544307     -31.1708005                0               0                0               0
6.0904                0.04930244      54.5590876      0.999561065     -31.2391378                0               0                0               0
6.0912                0.04935944      54.4352913      0.999577737     -31.3074386                0               0                0               0
6.092               0.0494165943      54.3110841      0.999594325      -31.375703                0               0                0               0
6.0928              0.0494739029       54.186464      0.999610828      -31.443931                0               0                0               0
6.0936              0.0495313661       54.061429      0.999627247     -31.5121225                0               0                0               0
6.0944              0.0495889839      53.9359771      0.999643581     -31.5802776                0               0                0               0
6.0952              0.0496467566      53.8101064      0.999659831     -31.6483962                0               0                0               0
6.096               0.0497046843      53.6838149      0.999675998     -31.7164784                0               0                0               0
6.0968              0.0497627671      53.5571005      0.999692081     -31.7845242                0               0                0               0
6.0976              0.0498210052      53.4299612      0.999708081     -31.8525336                0               0                0               0
6.0984              0.0498793986      53.3023951      0.999723997     -31.9205066                0               0                0               0
6.0992              0.0499379475      53.1743999       0.99973983     -31.9884432                0               0                0               0
6.1                 0.0499966519      53.0459738      0.999755581     -32.0563434                0               0                0               0
6.1008               0.050055512      52.9171146      0.999771249     -32.1242072                0               0                0               0
6.1016              0.0501145279      52.7878202      0.999786835     -32.1920346                0               0                0               0
6.1024              0.0501736996      52.6580886      0.999802339     -32.2598257                0               0                0               0
6.1032              0.0502330272      52.5279177      0.999817761     -32.3275803                0               0                0               0
6.104               0.0502925107      52.3973053      0.999833101     -32.3952987                0               0                0               0
6.1048              0.0503521503      52.2662493       0.99984836     -32.4629806                0               0                0               0
6.1056              0.0504119459      52.1347477      0.999863538     -32.5306262                0               0                0               0
6.1064              0.0504718976      52.0027982      0.999878634     -32.5982354                0               0                0               0
6.1072              0.0505320053      51.8703988       0.99989365     -32.6658083                0               0                0               0
6.108               0.0505922692      51.7375472      0.999908585     -32.7333449                0               0                0               0
6.1088              0.0506526892      51.6042413       0.99992344     -32.8008451                0               0                0               0
6.1096              0.0507132653      51.4704789      0.999938214     -32.8683091                0               0                0               0
6.1104              0.0507739975      51.3362578      0.999952908     -32.9357367                0               0                0               0
6.1112              0.0508348857      51.2015759      0.999967523     -33.0031279                0               0                0               0
6.112               0.0508959299      51.0664308      0.999982058     -33.0704829                0               0                0               0
6.1128              0.0509571302      50.9308204      0.999996514     -33.1378016                0               0                0               0
6.1136              0.0510184863      50.7947424                1      -33.205084                0               0                0               0
6.1144              0.0510799983      50.6581947                1     -33.2723302                0               0                0               0
6.1152               0.051141666      50.5211748                1       -33.33954                0               0                0               0
6.116               0.0512034893      50.3836806                1     -33.4067136                0               0                0               0
6.1168              0.0512654682      50.2457098                1     -33.4738509                0               0                0               0
6.1176              0.0513276025      50.1072601                1      -33.540952                0               0                0               0
6.1184              0.0513898921      49.9683292                1     -33.6080168                0               0                0               0
6.1192              0.0514523369      49.8289147                1     -33.6750454                0               0                0               0
6.12                0.0515149366      49.6890144                1     -33.7420377                0               0                0               0
6.1208              0.0515776911       49.548626                1     -33.8089939                0               0                0               0
6.1216              0.0516406003       49.407747                1     -33.8759138                0               0                0               0
6.1224              0.0517036638      49.2663751                1     -33.9427975                0               0                0               0
6.1232              0.0517668816       49.124508                1      -34.009645                0               0                0               0
6.124               0.0518302534      48.9821433                1     -34.0764563                0               0                0               0
6.1248              0.0518937789      48.8392785                1     -34.1432314                0               0                0               0
6.1256              0.0519574578      48.6959114                1     -34.2099704                0               0                0               0
6.1264                0.05202129      48.5520394                1     -34.2766732                0               0                0               0
6.1272              0.0520852751      48.4076602                1     -34.3433398                0               0                0               0
6.128               0.0521494129      48.2627713                1     -34.4099702                0               0                0               0
6.1288              0.0522137029      48.1173703                1     -34.4765646                0               0                0               0
6.1296              0.0522781449      47.9714548                1     -34.5431228                0               0                0               0
6.1304              0.0523427385      47.8250222                1     -34.6096448                0               0                0               0
6.1312              0.0524074833      47.6780701                1     -34.6761308                0               0                0               0
6.132                0.052472379       47.530596                1     -34.7425806                0               0                0               0
6.1328              0.0525374251      47.3825975                1     -34.8089944                0               0                0               0
6.1336              0.0526026213      47.2340719                1      -34.875372                0               0                0               0
6.1344              0.0526679671      47.0850168                1     -34.9417136                0               0                0               0
6.1352               0.052733462      46.9354297                1     -35.0080191                0               0                0               0
6.136               0.0527991056      46.7853081                1     -35.0742885                0               0                0               0
6.1368              0.0528648973      46.6346493                1     -35.1405219                0               0                0               0
6.1376              0.0529308368      46.4834508                1     -35.2067192                0               0                0               0
6.1384              0.0529969233      46.3317101                1     -35.2728805                0               0                0               0
6.1392              0.0530631564      46.1794245                1     -35.3390057                0               0                0               0
6.14                0.0531295355      46.0265916                1      -35.405095                0               0                0               0
6.1408              0.0531960601      45.8732086                1     -35.4711482                0               0                0               0
6.1416              0.0532627294      45.7192729                1     -35.5371654                0               0                0               0
6.1424              0.0533295429       45.564782                1     -35.6031467                0               0                0               0
6.1432              0.0533964999      45.4097333                1     -35.6690919                0               0                0               0
6.144               0.0534635997      45.2541239                1     -35.7350012                0               0                0               0
6.1448              0.0535308416      45.0979515                1     -35.8008745                0               0                0               0
6.1456               0.053598225      44.9412131                1     -35.8667119                0               0                0               0
6.1464               0.053665749      44.7839063                1     -35.9325133                0               0                0               0
6.1472              0.0537334129      44.6260283                1     -35.9982788                0               0                0               0
6.148               0.0538012159      44.4675764                1     -36.0640084                0               0                0               0
6.1488              0.0538691572      44.3085479                1     -36.1297021                0               0                0               0
6.1496              0.0539372359      44.1489401                1     -36.1953598                0               0                0               0
6.1504              0.0540054512      43.9887502                1     -36.2609817                0               0                0               0
6.1512              0.0540738022      43.8279757                1     -36.3265677                0               0                0               0
6.152                0.054142288      43.6666137                1     -36.3921178                0               0                0               0
6.1528              0.0542109075      43.5046614                1     -36.4576321                0               0                0               0
6.1536                0.05427966      43.3421161                1     -36.5231105                0               0                0               0
6.1544              0.0543485443      43.1789751                1      -36.588553                0               0                0               0
6.1552              0.0544175594      43.0152356                1     -36.6539598                0               0                0               0
6.156               0.0544867043      42.8508947                1     -36.7193307                0               0                0               0
6.1568              0.0545559779      42.6859498                1     -36.7846658                0               0                0               0