! TOUCHSTONE file generated by CST MICROWAVE STUDIO
! Date and time: Tue Apr 22 22:28:14 2025
! Project name: L²¨¶Î´°Ô²½Ç¾ØÐÎ´°.cst
! Parameters = {L=18.9; PIN=1000; a=63; b=32; blendraduis=7.13; d=5; s=29; smallblend=0.5; ta=87.96; tb=20.47; trh=3.91; wa=74.97; wb=11.96; wblend=3.01; wr=42.57; wt=10.05}
! Header version: 2018
! Port assignment regex: !\s*Touchstone port\s*([0-9]+)\s*=\s*(CST MWS port|CST DS port)\s*([0-9]+|Zmin|Zmax)\s*\(\"(.*)\"\)(\s*mode\s*([0-9]+))?.*
! Touchstone port assignment:
! Touchstone port 1 = CST MWS port 1 ("")
! Touchstone port 2 = CST MWS port 2 ("")
! S-Parameters are not renormalized. Unphysical impedance of 0 will be written to the file.
# GHz S MA R 0
1                   0.0247015229     -1.22696545      0.517432604     -0.06978766      0.517432602   -0.0697876603     0.0247707365     -1.22290737
1.0002              0.0247033192     -1.23321091      0.517902739   -0.0666502065      0.517902736   -0.0666501931     0.0247725697     -1.22912721
1.0004              0.0247051353     -1.23944783      0.518374479   -0.0635365552      0.518374477    -0.063536528     0.0247744226     -1.23533854
1.0006              0.0247069715     -1.24567608       0.51884783      -0.0604472      0.518847828    -0.060447159     0.0247762957     -1.24154123
1.0008              0.0247088281     -1.25189553      0.519322796   -0.0573826326      0.519322793   -0.0573825779     0.0247781893     -1.24773514
1.001               0.0247107055     -1.25810604      0.519799379   -0.0543433424      0.519799377   -0.0543432739     0.0247801038     -1.25392014
1.0012              0.0247126041     -1.26430749      0.520277585    -0.051329816      0.520277582   -0.0513297338     0.0247820394     -1.26009611
1.0014              0.0247145243     -1.27049975      0.520757416   -0.0483425377      0.520757413   -0.0483424418     0.0247839967     -1.26626292
1.0016              0.0247164663     -1.27668268      0.521238876    -0.045381989      0.521238873   -0.0453818794     0.0247859758     -1.27242044
1.0018              0.0247184306     -1.28285616      0.521721969   -0.0424486486      0.521721967   -0.0424485254     0.0247879772     -1.27856853
1.002               0.0247204175     -1.28902007      0.522206699   -0.0395429924      0.522206697   -0.0395428556     0.0247900013     -1.28470708
1.0022              0.0247224274     -1.29517426       0.52269307   -0.0366654931      0.522693067   -0.0366653427     0.0247920485     -1.29083596
1.0024              0.0247244607     -1.30131862      0.523181085   -0.0338166205      0.523181082   -0.0338164566     0.0247941191     -1.29695503
1.0026              0.0247265178     -1.30745301      0.523670747   -0.0309968411      0.523670745   -0.0309966636     0.0247962135     -1.30306419
1.0028              0.0247285991     -1.31357732      0.524162061    -0.028206618      0.524162058   -0.0282064271     0.0247983322     -1.30916329
1.003                0.024730705     -1.31969142       0.52465503    -0.025446411      0.524655027   -0.0254462067     0.0248004754     -1.31525222
1.0032              0.0247328358     -1.32579518      0.525149657   -0.0227166764      0.525149654   -0.0227164588     0.0248026437     -1.32133086
1.0034              0.0247349921     -1.33188848      0.525645946   -0.0200178668      0.525645944   -0.0200176358     0.0248048374     -1.32739908
1.0036              0.0247371742      -1.3379712      0.526143901    -0.017350431      0.526143898   -0.0173501867      0.024807057     -1.33345676
1.0038              0.0247393825     -1.34404322      0.526643525   -0.0147148139      0.526643522   -0.0147145563     0.0248093029     -1.33950378
1.004               0.0247416175     -1.35010441      0.527144821   -0.0121114565      0.527144818   -0.0121111858     0.0248115754     -1.34554002
1.0042              0.0247438795     -1.35615466      0.527647793   -0.0095407959      0.527647791  -0.00954051205     0.0248138751     -1.35156536
1.0044              0.0247461692     -1.36219384      0.528152445  -0.00700326465      0.528152442  -0.00700296772     0.0248162023     -1.35757969
1.0046              0.0247484868     -1.36822185      0.528658779  -0.00449929119      0.528658777  -0.00449898124     0.0248185575     -1.36358289
1.0048              0.0247508328     -1.37423856        0.5291668  -0.00202929947      0.529166797  -0.00202897656     0.0248209412     -1.36957485
1.005               0.0247532077     -1.38024386       0.52967651  0.000406291104      0.529676507  0.000406626908     0.0248233538     -1.37555544
1.0052              0.0247556119     -1.38623763      0.530187913   0.00280706578       0.53018791   0.00280741442     0.0248257958     -1.38152456
1.0054               0.024758046     -1.39221976      0.530701012   0.00517261461      0.530701009   0.00517297602     0.0248282676     -1.38748209
1.0056              0.0247605103     -1.39819014      0.531215811   0.00750253255      0.531215808   0.00750290665     0.0248307698     -1.39342793
1.0058              0.0247630055     -1.40414866      0.531732312   0.00979641958       0.53173231   0.00979680631     0.0248333027     -1.39936196
1.006               0.0247655318     -1.41009521       0.53225052    0.0120538808      0.532250517    0.0120542801     0.0248358669     -1.40528408
1.0062              0.0247680899     -1.41602968      0.532770437    0.0142745267      0.532770434    0.0142749385     0.0248384628     -1.41119419
1.0064              0.0247706803     -1.42195197      0.533292066     0.016457973      0.533292064    0.0164583972     0.0248410911     -1.41709216
1.0066              0.0247733033     -1.42786196      0.533815412     0.018603841      0.533815409    0.0186042775      0.024843752     -1.42297791
1.0068              0.0247759597     -1.43375957      0.534340476    0.0207117577      0.534340473    0.0207122065     0.0248464463     -1.42885133
1.007               0.0247786498     -1.43964468      0.534867262    0.0227813558       0.53486726    0.0227818168     0.0248491743     -1.43471232
1.0072              0.0247813742      -1.4455172      0.535395774     0.024812274      0.535395771     0.024812747     0.0248519367     -1.44056079
1.0074              0.0247841335     -1.45137702      0.535926015    0.0268041569      0.535926012    0.0268046419     0.0248547339     -1.44639662
1.0076              0.0247869281     -1.45722406      0.536457986    0.0287566552      0.536457984    0.0287571521     0.0248575665     -1.45221974
1.0078              0.0247897586     -1.46305822      0.536991693    0.0306694261       0.53699169    0.0306699348      0.024860435     -1.45803004
1.008               0.0247926256     -1.46887939      0.537527138    0.0325421331      0.537527135    0.0325426535     0.0248633401     -1.46382743
1.0082              0.0247955297      -1.4746875      0.538064323    0.0343744461      0.538064321    0.0343749782     0.0248662821     -1.46961183
1.0084              0.0247984713     -1.48048246      0.538603253     0.036166042       0.53860325    0.0361665855     0.0248692618     -1.47538314
1.0086              0.0248014511     -1.48626417       0.53914393    0.0379166041      0.539143927     0.037917159     0.0248722796     -1.48114128
1.0088              0.0248044697     -1.49203255      0.539686357    0.0396258229      0.539686354    0.0396263892     0.0248753362     -1.48688618
1.009               0.0248075276     -1.49778752      0.540230537    0.0412933959      0.540230534    0.0412939735     0.0248784322     -1.49261773
1.0092              0.0248106254       -1.503529      0.540776473    0.0429190279      0.540776471    0.0429196166     0.0248815681     -1.49833587
1.0094              0.0248137638     -1.50925691      0.541324169    0.0445024309      0.541324167    0.0445030305     0.0248847445     -1.50404052
1.0096              0.0248169433     -1.51497118      0.541873628    0.0460433244      0.541873625    0.0460439349     0.0248879621     -1.50973161
1.0098              0.0248201647     -1.52067172      0.542424852    0.0475414355      0.542424849    0.0475420568     0.0248912215     -1.51540906
1.01                0.0248234284     -1.52635848      0.542977844    0.0489964992      0.542977842    0.0489971311     0.0248945233      -1.5210728
1.0102              0.0248267352     -1.53203138      0.543532608    0.0504082581      0.543532605    0.0504089006     0.0248978682     -1.52672276
1.0104              0.0248300857     -1.53769035      0.544089146    0.0517764631      0.544089144     0.051777116     0.0249012568     -1.53235888
1.0106              0.0248334806     -1.54333533      0.544647462     0.053100873       0.54464746    0.0531015362     0.0249046897     -1.53798111
1.0108              0.0248369205     -1.54896627      0.545207559    0.0543812551      0.545207556    0.0543819285     0.0249081676     -1.54358937
1.011               0.0248404061      -1.5545831      0.545769439    0.0556173851      0.545769436    0.0556180685     0.0249116912     -1.54918361
1.0112               0.024843938     -1.56018577      0.546333105    0.0568090471      0.546333103    0.0568097405     0.0249152612     -1.55476378
1.0114               0.024847517     -1.56577423      0.546898562    0.0579560342      0.546898559    0.0579567374     0.0249188782     -1.56032983
1.0116              0.0248511438     -1.57134842       0.54746581    0.0590581482      0.547465808     0.059058861      0.024922543     -1.56588172
1.0118              0.0248548191     -1.57690831      0.548034855    0.0601151997      0.548034853    0.0601159221     0.0249262563     -1.57141938
1.012               0.0248585435     -1.58245385      0.548605699    0.0611270088      0.548605697    0.0611277406     0.0249300187      -1.5769428
1.0122              0.0248623179       -1.587985      0.549178344    0.0620934046      0.549178342    0.0620941457     0.0249338311     -1.58245191
1.0124               0.024866143     -1.59350173      0.549752794    0.0630142258      0.549752792     0.063014976     0.0249376941     -1.58794671
1.0126              0.0248700194       -1.599004      0.550329052    0.0638893205       0.55032905    0.0638900797     0.0249416085     -1.59342714
1.0128               0.024873948     -1.60449178      0.550907121    0.0647185466      0.550907119    0.0647193146      0.024945575     -1.59889319
1.013               0.0248779296     -1.60996506      0.551487004    0.0655017718      0.551487002    0.0655025485     0.0249495945     -1.60434482
1.0132              0.0248819649      -1.6154238      0.552068705    0.0662388738      0.552068703     0.066239659     0.0249536676     -1.60978203
1.0134              0.0248860547     -1.62086799      0.552652226    0.0669297404      0.552652224     0.066930534     0.0249577952     -1.61520478
1.0136              0.0248901998     -1.62629761       0.55323757    0.0675742697      0.553237569    0.0675750715     0.0249619781     -1.62061308
1.0138              0.0248944011     -1.63171267      0.553824741    0.0681723701       0.55382474      0.06817318     0.0249662171     -1.62600691
1.014               0.0248986592     -1.63711314      0.554413742    0.0687239607      0.554413741    0.0687247785      0.024970513     -1.63138626
1.0142              0.0249029752     -1.64249904      0.555004577    0.0692289712      0.555004576    0.0692297968     0.0249748667     -1.63675115
1.0144              0.0249073498     -1.64787035      0.555597248    0.0696873421      0.555597246    0.0696881753     0.0249792789     -1.64210156
1.0146              0.0249117838     -1.65322709      0.556191758    0.0700990251      0.556191757    0.0700998657     0.0249837506     -1.64743751
1.0148              0.0249162782     -1.65856928      0.556788112    0.0704639826      0.556788111    0.0704648305     0.0249882826     -1.65275901
1.015               0.0249208339     -1.66389692      0.557386312    0.0707821886      0.557386311    0.0707830437     0.0249928758     -1.65806607
1.0152              0.0249254516     -1.66921004      0.557986362    0.0710536284      0.557986361    0.0710544904      0.024997531     -1.66335873
1.0154              0.0249301324     -1.67450866      0.558588265    0.0712782987      0.558588265    0.0712791675     0.0250022492     -1.66863701
1.0156              0.0249348771     -1.67979281      0.559192026    0.0714562081      0.559192025    0.0714570836     0.0250070313     -1.67390093
1.0158              0.0249396867     -1.68506254      0.559797646    0.0715873769      0.559797645    0.0715882587     0.0250118782     -1.67915054
1.016               0.0249445621     -1.69031787       0.56040513    0.0716718372      0.560405129    0.0716727253     0.0250167909     -1.68438587
1.0162              0.0249495042     -1.69555886      0.561014482    0.0717096334      0.561014481    0.0717105276     0.0250217702     -1.68960697
1.0164              0.0249545141     -1.70078555      0.561625704     0.071700822      0.561625704    0.0717017221     0.0250268173     -1.69481391
1.0166              0.0249595927     -1.70599801      0.562238802     0.071645472      0.562238802    0.0716463778      0.025031933     -1.70000672
1.0168               0.024964741     -1.71119629      0.562853778    0.0715436646      0.562853778     0.071544576     0.0250371183     -1.70518548
1.017               0.0249699601     -1.71638046      0.563470637     0.071395494      0.563470637    0.0713964108     0.0250423743     -1.71035025
1.0172              0.0249752508      -1.7215506      0.564089382    0.0712010668      0.564089382    0.0712019888      0.025047702     -1.71550111
1.0174              0.0249806144     -1.72670679      0.564710018    0.0709605028      0.564710018    0.0709614297     0.0250531023     -1.72063815
1.0176              0.0249860517     -1.73184911      0.565332548    0.0706739345      0.565332548    0.0706748663     0.0250585765     -1.72576144
1.0178               0.024991564     -1.73697765      0.565956976    0.0703415079      0.565956976    0.0703424443     0.0250641254     -1.73087108
1.018               0.0249971523     -1.74209252      0.566583307    0.0699633819      0.566583307    0.0699643228     0.0250697502     -1.73596716
1.0182              0.0250028176     -1.74719381      0.567211545    0.0695397292      0.567211545    0.0695406743      0.025075452      -1.7410498
1.0184              0.0250085611     -1.75228164      0.567841695    0.0690707357      0.567841695    0.0690716848     0.0250812319     -1.74611911
1.0186              0.0250143839     -1.75735612       0.56847376     0.068556601       0.56847376     0.068557554     0.0250870911      -1.7511752
1.0188              0.0250202872     -1.76241739      0.569107745    0.0679975386      0.569107746    0.0679984952     0.0250930305     -1.75621821
1.019                0.025026272     -1.76746557      0.569743656    0.0673937758      0.569743656    0.0673947359     0.0250990515     -1.76124825
1.0192              0.0250323397      -1.7725008      0.570381495    0.0667455539      0.570381496    0.0667465173     0.0251051552     -1.76626548
1.0194              0.0250384914     -1.77752323       0.57102127    0.0660531284      0.571021271    0.0660540949     0.0251113428     -1.77127004
1.0196              0.0250447282     -1.78253301      0.571662984     0.065316769      0.571662985    0.0653177383     0.0251176155     -1.77626209
1.0198              0.0250510515     -1.78753031      0.572306642    0.0645367595      0.572306643    0.0645377315     0.0251239744     -1.78124178
1.02                0.0250574624     -1.79251528       0.57295225    0.0637133986      0.572952251     0.063714373     0.0251304209     -1.78620929
1.0202              0.0250639622     -1.79748812      0.573599812    0.0628469993      0.573599813    0.0628479759     0.0251369563     -1.79116479
1.0204              0.0250705523       -1.802449      0.574249335    0.0619378891      0.574249336    0.0619388678     0.0251435817     -1.79610847
1.0206              0.0250772338     -1.80739812      0.574900823    0.0609864106      0.574900824    0.0609873911     0.0251502984     -1.80104053
1.0208              0.0250840082     -1.81233568      0.575554283     0.059992921      0.575554284    0.0599939031     0.0251571079     -1.80596117
1.021               0.0250908767     -1.81726189       0.57620972    0.0589577925      0.576209721    0.0589587761     0.0251640114     -1.81087059
1.0212              0.0250978407     -1.82217696       0.57686714    0.0578814126      0.576867141    0.0578823974     0.0251710103     -1.81576902
1.0214              0.0251049017     -1.82708114      0.577526549    0.0567641835       0.57752655    0.0567651693     0.0251781059     -1.82065668
1.0216              0.0251120609     -1.83197464      0.578187953    0.0556065229      0.578187955    0.0556075094     0.0251852996     -1.82553382
1.0218              0.0251193198     -1.83685773      0.578851359    0.0544088636      0.578851361    0.0544098508     0.0251925929     -1.83040067
1.022               0.0251266798     -1.84173065      0.579516773    0.0531716541      0.579516775    0.0531726416     0.0251999872     -1.83525751
1.0222              0.0251341424     -1.84659367      0.580184202    0.0518953579      0.580184205    0.0518963456     0.0252074839     -1.84010458
1.0224              0.0251417091     -1.85144707      0.580853653    0.0505804543      0.580853656    0.0505814419     0.0252150845     -1.84494216
1.0226              0.0251493813     -1.85629112      0.581525133    0.0492274381      0.581525136    0.0492284255     0.0252227905     -1.84977055
1.0228              0.0251571606     -1.86112613      0.582198649    0.0478368198      0.582198652    0.0478378066     0.0252306034     -1.85459004
1.023               0.0251650486      -1.8659524      0.582874209    0.0464091254      0.582874211    0.0464101115     0.0252385248     -1.85940092
1.0232              0.0251730468     -1.87077024      0.583551819    0.0449448968      0.583551822     0.044945882     0.0252465563     -1.86420352
1.0234              0.0251811567     -1.87557998      0.584231489    0.0434446915      0.584231492    0.0434456756     0.0252546993     -1.86899817
1.0236              0.0251893801     -1.88038196      0.584913225    0.0419090831      0.584913228    0.0419100658     0.0252629555      -1.8737852
1.0238              0.0251977185     -1.88517652      0.585597037    0.0403386608       0.58559704    0.0403396419     0.0252713266     -1.87856495
1.024               0.0252061736     -1.88996403      0.586282932    0.0387340297      0.586282935     0.038735009     0.0252798142     -1.88333779
1.0242              0.0252147471     -1.89474486       0.58697092     0.037095811      0.586970923    0.0370967883       0.02528842      -1.8881041
1.0244              0.0252234408     -1.89951938      0.587661009    0.0354246415      0.587661012    0.0354256165     0.0252971457     -1.89286424
1.0246              0.0252322562       -1.904288      0.588353209    0.0337211742      0.588353212    0.0337221468      0.025305993     -1.89761862
1.0248              0.0252411953     -1.90905111      0.589047528    0.0319860778      0.589047532    0.0319870477     0.0253149638     -1.90236764
1.025               0.0252502598     -1.91380914      0.589743977    0.0302200371      0.589743981    0.0302210042     0.0253240597     -1.90711173
1.0252              0.0252594515     -1.91856252      0.590442566    0.0284237528      0.590442569    0.0284247167     0.0253332826      -1.9118513
1.0254              0.0252687723     -1.92331168      0.591143304    0.0265979413      0.591143308    0.0265989019     0.0253426343     -1.91658682
1.0256              0.0252782241      -1.9280571      0.591846202    0.0247433349      0.591846206     0.024744292     0.0253521168     -1.92131872
1.0258              0.0252878087     -1.93279924      0.592551271    0.0228606819      0.592551275    0.0228616352     0.0253617318     -1.92604749
1.026               0.0252975281     -1.93753857      0.593258523    0.0209507463      0.593258527    0.0209516956     0.0253714814      -1.9307736
1.0262              0.0253073842      -1.9422756      0.593967968    0.0190143076      0.593967972    0.0190152528     0.0253813675     -1.93549755
1.0264              0.0253173791     -1.94701084      0.594679618    0.0170521613      0.594679622    0.0170531021     0.0253913921     -1.94021985
1.0266              0.0253275148     -1.95174482      0.595393485    0.0150651182      0.595393489    0.0150660544     0.0254015572     -1.94494103
1.0268              0.0253377933     -1.95647806      0.596109581    0.0130540049      0.596109585    0.0130549362     0.0254118648     -1.94966162
1.027               0.0253482167     -1.96121112       0.59682792     0.011019663      0.596827924    0.0110205893     0.0254223171     -1.95438217
1.0272              0.0253587872     -1.96594458      0.597548513   0.00896294989      0.597548518   0.00896387091     0.0254329161     -1.95910326
1.0274              0.0253695068     -1.97067901      0.598271376   0.00688473778       0.59827138   0.00688565333      0.025443664     -1.96382547
1.0276              0.0253803779     -1.97541501       0.59899652   0.00478591413      0.598996525   0.00478682401      0.025454563     -1.96854939
1.0278              0.0253914025      -1.9801532      0.599723961   0.00266738131      0.599723966   0.00266828531     0.0254656153     -1.97327563
1.028               0.0254025831      -1.9848942      0.600453713  0.000530056491      0.600453718    0.0005309544     0.0254768231     -1.97800483
1.0282              0.0254139218     -1.98963866      0.601185791  -0.00162512854      0.601185796  -0.00162423692     0.0254881888     -1.98273763
1.0284               0.025425421     -1.99438723       0.60192021  -0.00379722752      0.601920215   -0.0037963424     0.0254997147     -1.98747468
1.0286              0.0254370831      -1.9991406      0.602656985  -0.00598527991      0.602656991   -0.0059844015      0.025511403     -1.99221667
1.0288              0.0254489105     -2.00389946      0.603396134   -0.0081883111       0.60339614  -0.00818743959     0.0255232563     -1.99696428
1.029               0.0254609056     -2.00866452      0.604137673   -0.0104053326      0.604137678   -0.0104044682      0.025535277     -2.00171823
1.0292              0.0254730709     -2.01343651      0.604881618   -0.0126353423      0.604881623   -0.0126344852     0.0255474675     -2.00647924
1.0294               0.025485409     -2.01821616      0.605627987   -0.0148773247      0.605627993   -0.0148764751     0.0255598304     -2.01124806
1.0296              0.0254979224     -2.02300425      0.606376799   -0.0171302511      0.606376804   -0.0171294092     0.0255723683     -2.01602545
1.0298              0.0255106137     -2.02780155      0.607128071     -0.01939308      0.607128077    -0.019392246     0.0255850836     -2.02081218
1.03                0.0255234856     -2.03260887      0.607881823   -0.0216647573      0.607881829   -0.0216639314     0.0255979792     -2.02560906
1.0302              0.0255365408     -2.03742701      0.608638074   -0.0239442167       0.60863808   -0.0239433989     0.0256110576      -2.0304169
1.0304               0.025549782     -2.04225681      0.609396844   -0.0262303796       0.60939685   -0.0262295704     0.0256243216     -2.03523653
1.0306               0.025563212     -2.04709913      0.610158154   -0.0285221563       0.61015816   -0.0285213557      0.025637774     -2.04006881
1.0308              0.0255768337     -2.05195484      0.610922024   -0.0308184456       0.61092203   -0.0308176537     0.0256514176      -2.0449146
1.031                 0.02559065     -2.05682482      0.611688477   -0.0331181353      0.611688483   -0.0331173525     0.0256652553     -2.04977481
1.0312              0.0256046637        -2.06171      0.612457535    -0.035420103      0.612457541   -0.0354193293       0.02567929     -2.05465033
1.0314              0.0256188778      -2.0666113       0.61322922    -0.037723216      0.613229226   -0.0377224516     0.0256935248     -2.05954209
1.0316              0.0256332955     -2.07152967      0.614003555   -0.0400263321      0.614003562   -0.0400255772     0.0257079625     -2.06445106
1.0318              0.0256479198     -2.07646609      0.614780566      -0.0423283      0.614780572   -0.0423275547     0.0257226063     -2.06937819
1.032               0.0256627538     -2.08142155      0.615560276   -0.0446279596      0.615560282   -0.0446272241     0.0257374593     -2.07432448
1.0322              0.0256778007     -2.08639705       0.61634271   -0.0469241426      0.616342717   -0.0469234171     0.0257525247     -2.07929093
1.0324              0.0256930638     -2.09139363      0.617127896   -0.0492156731      0.617127902   -0.0492149577     0.0257678058     -2.08427859
1.0326              0.0257085463     -2.09641235      0.617915858   -0.0515013682      0.617915865   -0.0515006631     0.0257833058      -2.0892885
1.0328              0.0257242517     -2.10145428      0.618706626   -0.0537800384      0.618706633   -0.0537793437     0.0257990281     -2.09432173
1.033               0.0257401834     -2.10652052      0.619500226   -0.0560504882      0.619500232    -0.056049804     0.0258149761     -2.09937939
1.0332              0.0257563449     -2.11161219      0.620296687   -0.0583115168      0.620296694   -0.0583108433     0.0258311532     -2.10446259
1.0334              0.0257727396     -2.11673043      0.621096039   -0.0605619188      0.621096046   -0.0605612562     0.0258475631     -2.10957247
1.0336              0.0257893712      -2.1218764      0.621898312   -0.0628004849      0.621898319   -0.0627998332     0.0258642093     -2.11471019
1.0338              0.0258062435     -2.12705129      0.622703537   -0.0650260024      0.622703544   -0.0650253618     0.0258810954     -2.11987694
1.034               0.0258233601      -2.1322563      0.623511746   -0.0672372561      0.623511753   -0.0672366266     0.0258982253     -2.12507391
1.0342              0.0258407248     -2.13749268      0.624322971   -0.0694330289      0.624322978   -0.0694324108     0.0259156026     -2.13030235
1.0344              0.0258583415     -2.14276167      0.625137245    -0.071612103      0.625137253   -0.0716114962     0.0259332313     -2.13556351
1.0346              0.0258762143     -2.14806455      0.625954604   -0.0737732601      0.625954611   -0.0737726649     0.0259511153     -2.14085866
1.0348               0.025894347     -2.15340262      0.626775081   -0.0759152828      0.626775089   -0.0759146992     0.0259692586     -2.14618909
1.035               0.0259127439     -2.15877721      0.627598714   -0.0780369551      0.627598721   -0.0780363832     0.0259876653     -2.15155615
1.0352               0.025931409     -2.16418966      0.628425538   -0.0801370637      0.628425545   -0.0801365036     0.0260063395     -2.15696116
1.0354              0.0259503466     -2.16964136      0.629255591   -0.0822143985      0.629255598   -0.0822138503     0.0260252856      -2.1624055
1.0356              0.0259695612     -2.17513368      0.630088912    -0.084267754      0.630088919   -0.0842672177     0.0260445077     -2.16789056
1.0358               0.025989057     -2.18066807      0.630925541   -0.0862959298      0.630925548   -0.0862954055     0.0260640103     -2.17341777
1.036               0.0260088386     -2.18624595      0.631765517   -0.0882977323      0.631765525   -0.0882972201      0.026083798     -2.17898857
1.0362              0.0260289105     -2.19186881      0.632608884   -0.0902719754      0.632608891   -0.0902714753     0.0261038751     -2.18460442
1.0364              0.0260492776     -2.19753813      0.633455682   -0.0922174814      0.633455689   -0.0922169935     0.0261242465     -2.19026681
1.0366              0.0260699444     -2.20325543      0.634305956   -0.0941330828      0.634305963   -0.0941326071     0.0261449169     -2.19597727
1.0368              0.0260909159     -2.20902227       0.63515975   -0.0960176228      0.635159757   -0.0960171594     0.0261658911     -2.20173734
1.037               0.0261121971     -2.21484019      0.636017109   -0.0978699571      0.636017116   -0.0978695059      0.026187174     -2.20754857
1.0372              0.0261337929     -2.22071081      0.636878081   -0.0996889547      0.636878088   -0.0996885158     0.0262087707     -2.21341257
1.0374              0.0261557086     -2.22663573      0.637742713      -0.1014735       0.63774272    -0.101473073     0.0262306863     -2.21933095
1.0376              0.0261779494     -2.23261661      0.638611053    -0.103222492      0.638611061    -0.103222078      0.026252926     -2.22530534
1.0378              0.0262005207      -2.2386551      0.639483153    -0.104934849       0.63948316    -0.104934447     0.0262754952     -2.23133742
1.038               0.0262234279      -2.2447529      0.640359063    -0.106609508       0.64035907    -0.106609118     0.0262983994     -2.23742888
1.0382              0.0262466766     -2.25091173      0.641238835    -0.108245426      0.641238842    -0.108245048      0.026321644     -2.24358142
1.0384              0.0262702726     -2.25713334      0.642122522    -0.109841581       0.64212253    -0.109841216     0.0263452348      -2.2497968
1.0386              0.0262942215     -2.26341948      0.643010181    -0.111396977      0.643010188    -0.111396624     0.0263691776     -2.25607677
1.0388              0.0263185295     -2.26977195      0.643901865     -0.11291064      0.643901873      -0.1129103     0.0263934782     -2.26242313
1.039               0.0263432025     -2.27619257      0.644797634    -0.114381626      0.644797641    -0.114381298     0.0264181428     -2.26883769
1.0392              0.0263682467     -2.28268318      0.645697544    -0.115809017      0.645697551    -0.115808701     0.0264431774     -2.27532229