! TOUCHSTONE file generated by CST MICROWAVE STUDIO
! Date and time: Tue Apr 22 22:00:42 2025
! Project name: L²¨¶Î¼¹²¨µ¼.cst
! Parameters = {L=31.5; a=63; b=32; d=5; s=29}
! Header version: 2018
! Port assignment regex: !\s*Touchstone port\s*([0-9]+)\s*=\s*(CST MWS port|CST DS port)\s*([0-9]+|Zmin|Zmax)\s*\(\"(.*)\"\)(\s*mode\s*([0-9]+))?.*
! Touchstone port assignment:
! Touchstone port 1 = CST MWS port 1 ("")
! Touchstone port 2 = CST MWS port 2 ("")
! S-Parameters are not renormalized. Unphysical impedance of 0 will be written to the file.
# GHz S MA R 0
1                 0.000326210413            -180      0.774998188 -2.54894299e-14      0.774998188 -2.54894391e-14   0.000291424869            -180
1.0002            0.000326639581      179.981169      0.775278096  -0.00413054325      0.775278096  -0.00413053971   0.000291762635      179.983211
1.0004            0.000327069812      179.962434      0.775557825   -0.0082504726      0.775557824  -0.00825046539   0.000292101114      179.966505
1.0006            0.000327501121      179.943799      0.775837377   -0.0123592512      0.775837376   -0.0123592402   0.000292440316      179.949886
1.0008            0.000327933523      179.925266      0.776116755   -0.0164563407      0.776116755   -0.0164563258   0.000292780253      179.933355
1.001             0.000328367034      179.906835      0.776395963   -0.0205412008      0.776395962   -0.0205411819   0.000293120935      179.916913
1.0012             0.00032880167       179.88851      0.776675003     -0.02461329      0.776675002   -0.0246132669   0.000293462374      179.900562
1.0014            0.000329237448      179.870292      0.776953878    -0.028672065      0.776953877   -0.0286720377   0.000293804582      179.884305
1.0016            0.000329674384      179.852183      0.777232592   -0.0327169809       0.77723259   -0.0327169493    0.00029414757      179.868143
1.0018            0.000330112494      179.834186      0.777511147   -0.0367474916      0.777511146   -0.0367474555   0.000294491351      179.852078
1.002             0.000330551797      179.816303      0.777789548   -0.0407630493      0.777789546   -0.0407630086   0.000294835936      179.836112
1.0022            0.000330992311      179.798535      0.778067798   -0.0447631047      0.778067796   -0.0447630593   0.000295181339      179.820246
1.0024            0.000331434051      179.780885      0.778345899   -0.0487471073      0.778345897   -0.0487470571   0.000295527571      179.804483
1.0026            0.000331877039      179.763355      0.778623857   -0.0527145051      0.778623855     -0.05271445   0.000295874647      179.788824
1.0028             0.00033232129      179.745947      0.778901675   -0.0566647447      0.778901672   -0.0566646846   0.000296222579      179.773271
1.003             0.000332766826      179.728663      0.779179356   -0.0605972716      0.779179353   -0.0605972064   0.000296571381      179.757827
1.0032            0.000333213665      179.711504      0.779456905   -0.0645115299      0.779456902   -0.0645114595   0.000296921067      179.742492
1.0034            0.000333661827      179.694475      0.779734326   -0.0684069624      0.779734323   -0.0684068867    0.00029727165      179.727269
1.0036            0.000334111331      179.677575      0.780011623   -0.0722830111       0.78001162     -0.07228293   0.000297623144       179.71216
1.0038            0.000334562199      179.660808      0.780288801   -0.0761391164      0.780288797   -0.0761390298   0.000297975566      179.697167
1.004             0.000335014451      179.644175      0.780565863   -0.0799747179       0.78056586   -0.0799746257   0.000298328928      179.682291
1.0042            0.000335468108       179.62768      0.780842815    -0.083789254      0.780842811   -0.0837891561   0.000298683247      179.667534
1.0044            0.000335923192      179.611323      0.781119661   -0.0875821622      0.781119657   -0.0875820586   0.000299038537      179.652898
1.0046            0.000336379724      179.595107      0.781396406   -0.0913528791      0.781396402   -0.0913527696   0.000299394815      179.638386
1.0048            0.000336837728      179.579034      0.781673054   -0.0951008403       0.78167305   -0.0951007249   0.000299752096      179.623999
1.005             0.000337297226      179.563106      0.781949611   -0.0988254805      0.781949607   -0.0988253591   0.000300110397      179.609738
1.0052            0.000337758241      179.547326      0.782226083    -0.102526234      0.782226078    -0.102526106   0.000300469733      179.595607
1.0054            0.000338220797      179.531695      0.782502473    -0.106202533      0.782502469      -0.1062024   0.000300830123      179.581606
1.0056            0.000338684918      179.516216      0.782778788    -0.109853812      0.782778784    -0.109853672   0.000301191582      179.567738
1.0058            0.000339150628       179.50089      0.783055034    -0.113479501      0.783055029    -0.113479355   0.000301554128      179.554004
1.006             0.000339617952      179.485721      0.783331214    -0.117079033      0.783331209     -0.11707888    0.00030191778      179.540407
1.0062            0.000340086915      179.470709      0.783607337    -0.120651837      0.783607332    -0.120651678   0.000302282555      179.526948
1.0064            0.000340557544      179.455858      0.783883406    -0.124197345      0.783883401    -0.124197179   0.000302648471      179.513629
1.0066            0.000341029865      179.441169      0.784159429    -0.127714987      0.784159424    -0.127714814   0.000303015548      179.500452
1.0068            0.000341503904      179.426645      0.784435412    -0.131204192      0.784435407    -0.131204013   0.000303383804       179.48742
1.007             0.000341979688      179.412287       0.78471136     -0.13466439      0.784711355    -0.134664204   0.000303753259      179.474533
1.0072            0.000342457246      179.398098      0.784987281     -0.13809501      0.784987275    -0.138094817   0.000304123932      179.461794
1.0074            0.000342936605      179.384079       0.78526318    -0.141495481      0.785263174    -0.141495282   0.000304495843      179.449205
1.0076            0.000343417795      179.370234      0.785539065    -0.144865234      0.785539059    -0.144865027   0.000304869014      179.436767
1.0078            0.000343900843      179.356564      0.785814942    -0.148203696      0.785814936    -0.148203482   0.000305243464      179.424483
1.008             0.000344385781      179.343071      0.786090818    -0.151510298      0.786090812    -0.151510077   0.000305619215      179.412354
1.0082            0.000344872638      179.329757        0.7863667    -0.154784469      0.786366694    -0.154784241   0.000305996288      179.400383
1.0084            0.000345361445      179.316625      0.786642596     -0.15802564       0.78664259    -0.158025405   0.000306374706      179.388571
1.0086            0.000345852234      179.303676      0.786918513     -0.16123324      0.786918507    -0.161232998    0.00030675449      179.376919
1.0088            0.000346345035      179.290913      0.787194459    -0.164406701      0.787194452    -0.164406451   0.000307135663      179.365431
1.009             0.000346839883      179.278338      0.787470441    -0.167545453      0.787470434    -0.167545197   0.000307518248      179.354107
1.0092            0.000347336808      179.265952      0.787746467     -0.17064893       0.78774646    -0.170648666   0.000307902269       179.34295
1.0094            0.000347835846      179.253759      0.788022544    -0.173716564      0.788022537    -0.173716293    0.00030828775      179.331962
1.0096             0.00034833703      179.241759      0.788298683    -0.176747789      0.788298675     -0.17674751   0.000308674714      179.321143
1.0098            0.000348840395      179.229956      0.788574889     -0.17974204      0.788574882    -0.179741753   0.000309063187      179.310497
1.01              0.000349345977      179.218351      0.788851173    -0.182698752      0.788851166    -0.182698458   0.000309453193      179.300025
1.0102             0.00034985381      179.206946      0.789127542    -0.185617362      0.789127535    -0.185617061   0.000309844758      179.289729
1.0104            0.000350363932      179.195743      0.789404006     -0.18849731      0.789403998       -0.188497   0.000310237908       179.27961
1.0106             0.00035087638      179.184744      0.789680573    -0.191338034      0.789680566    -0.191337717    0.00031063267      179.269671
1.0108            0.000351391192      179.173952      0.789957253    -0.194138976      0.789957245    -0.194138651   0.000311029069      179.259913
1.011             0.000351908406      179.163368      0.790234054    -0.196899579      0.790234046    -0.196899247   0.000311427135      179.250338
1.0112            0.000352428061      179.152994      0.790510987    -0.199619287      0.790510979    -0.199618947   0.000311826893      179.240948
1.0114            0.000352950197      179.142833      0.790788061    -0.202297548      0.790788053    -0.202297201   0.000312228373      179.231745
1.0116            0.000353474855      179.132885      0.791065285     -0.20493381      0.791065277    -0.204933455   0.000312631603       179.22273
1.0118            0.000354002076      179.123154       0.79134267    -0.207527523      0.791342662     -0.20752716   0.000313036613      179.213905
1.012             0.000354531901      179.113641      0.791620226    -0.210078142      0.791620218    -0.210077771   0.000313443431      179.205271
1.0122            0.000355064373      179.104348      0.791897963     -0.21258512      0.791897955    -0.212584742   0.000313852089      179.196832
1.0124            0.000355599536      179.095277      0.792175892    -0.215047918      0.792175884    -0.215047532   0.000314262617      179.188587
1.0126            0.000356137433       179.08643      0.792454024    -0.217465995      0.792454015    -0.217465601   0.000314675045      179.180539
1.0128             0.00035667811      179.077808      0.792732368    -0.219838815       0.79273236    -0.219838414   0.000315089407       179.17269
1.013             0.000357221611      179.069414      0.793010938    -0.222165846      0.793010929    -0.222165436   0.000315505733      179.165042
1.0132            0.000357767984       179.06125      0.793289742    -0.224446557      0.793289734    -0.224446139   0.000315924057      179.157595
1.0134            0.000358317275      179.053316      0.793568794    -0.226680421      0.793568786    -0.226679996   0.000316344412      179.150351
1.0136            0.000358869532      179.045616      0.793848105    -0.228866917      0.793848097    -0.228866484   0.000316766832      179.143313
1.0138            0.000359424804      179.038151      0.794127687    -0.231005523      0.794127678    -0.231005083   0.000317191351      179.136482
1.014             0.000359983141      179.030921      0.794407551    -0.233095726      0.794407543    -0.233095277   0.000317618005      179.129858
1.0142            0.000360544593      179.023931       0.79468771    -0.235137012      0.794687702    -0.235136556   0.000318046828      179.123445
1.0144             0.00036110921       179.01718      0.794968177    -0.237128877      0.794968168    -0.237128413   0.000318477858      179.117243
1.0146            0.000361677046       179.01067      0.795248964    -0.239070815      0.795248955    -0.239070344    0.00031891113      179.111253
1.0148            0.000362248153      179.004404      0.795530083    -0.240962331      0.795530075    -0.240961851   0.000319346682      179.105478
1.015             0.000362822585      178.998383      0.795811549    -0.242802929       0.79581154    -0.242802442   0.000319784552      179.099919
1.0152            0.000363400397      178.992608      0.796093374    -0.244592123      0.796093365    -0.244591628   0.000320224778      179.094577
1.0154            0.000363981645      178.987082      0.796375572    -0.246329428      0.796375563    -0.246328926     0.0003206674      179.089453
1.0156            0.000364566384      178.981805      0.796658156    -0.248014368      0.796658147    -0.248013859   0.000321112458       179.08455
1.0158            0.000365154674      178.976779      0.796941141    -0.249646471      0.796941132    -0.249645953   0.000321559992      179.079868
1.016             0.000365746571      178.972005       0.79722454     -0.25122527      0.797224531    -0.251224745   0.000322010043      179.075408
1.0162            0.000366342136      178.967485      0.797508368    -0.252750305      0.797508359    -0.252749773   0.000322462653      179.071172
1.0164             0.00036694143      178.963221       0.79779264    -0.254221124      0.797792631    -0.254220584   0.000322917864      179.067162
1.0166            0.000367544513      178.959214      0.798077369    -0.255637278       0.79807736    -0.255636731    0.00032337572      179.063378
1.0168            0.000368151449      178.955464      0.798362573    -0.256998328      0.798362564    -0.256997774   0.000323836264      179.059822
1.017             0.000368762301      178.951974      0.798648264    -0.258303841      0.798648255     -0.25830328   0.000324299542      179.056494
1.0172            0.000369377133      178.948745       0.79893446    -0.259553391      0.798934451    -0.259552822   0.000324765598      179.053396
1.0174            0.000369996012      178.945777      0.799221176     -0.26074656      0.799221167    -0.260745984   0.000325234478      179.050529
1.0176            0.000370619004      178.943072      0.799508427    -0.261882936      0.799508418    -0.261882353   0.000325706229      179.047895
1.0178            0.000371246178      178.940631       0.79979623    -0.262962119      0.799796222    -0.262961529   0.000326180899      179.045493
1.018             0.000371877602      178.938456      0.800084602    -0.263983714      0.800084593    -0.263983117   0.000326658536      179.043326
1.0182            0.000372513347      178.936546      0.800373559    -0.264947335       0.80037355    -0.264946732   0.000327139189      179.041393
1.0184            0.000373153484      178.934904      0.800663117    -0.265852608      0.800663109    -0.265851997   0.000327622908      179.039697
1.0186            0.000373798086       178.93353      0.800953295    -0.266699163      0.800953286    -0.266698546   0.000328109744      179.038237
1.0188            0.000374447226      178.932425      0.801244109    -0.267486645        0.8012441    -0.267486021   0.000328599747      179.037015
1.019              0.00037510098       178.93159      0.801535578    -0.268214705      0.801535569    -0.268214075   0.000329092971      179.036031
1.0192            0.000375759425      178.931025      0.801827718    -0.268883006      0.801827709    -0.268882369   0.000329589468      179.035286
1.0194            0.000376422637      178.930731      0.802120548    -0.269491221       0.80212054    -0.269490577   0.000330089292      179.034781
1.0196            0.000377090696       178.93071      0.802414088    -0.270039034      0.802414079    -0.270038384   0.000330592498      179.034516
1.0198            0.000377763681      178.930961      0.802708354    -0.270526139      0.802708345    -0.270525482   0.000331099143      179.034492
1.02              0.000378441676      178.931485      0.803003366    -0.270952243      0.803003357     -0.27095158   0.000331609282       179.03471
1.0202            0.000379124761      178.932283      0.803299144    -0.271317064      0.803299135    -0.271316395   0.000332122972      179.035169
1.0204            0.000379813023      178.933355      0.803595706    -0.271620332      0.803595697    -0.271619658   0.000332640274      179.035871
1.0206            0.000380506546      178.934701      0.803893073    -0.271861791      0.803893064    -0.271861111   0.000333161244      179.036816
1.0208            0.000381205418      178.936322      0.804191264    -0.272041196      0.804191255     -0.27204051   0.000333685945      179.038003
1.021             0.000381909727      178.938218      0.804490299    -0.272158315      0.804490291    -0.272157624   0.000334214437      179.039434
1.0212            0.000382619564      178.940389      0.804790199    -0.272212933      0.804790191    -0.272212236   0.000334746783      179.041109
1.0214            0.000383335019      178.942835      0.805090985    -0.272204844      0.805090977    -0.272204142   0.000335283045      179.043026
1.0216            0.000384056187      178.945557      0.805392678    -0.272133861       0.80539267    -0.272133153   0.000335823288      179.045188
1.0218            0.000384783163      178.948553      0.805695299    -0.271999809      0.805695291    -0.271999096   0.000336367577      179.047593
1.022             0.000385516041      178.951825      0.805998869    -0.271802529      0.805998861    -0.271801811   0.000336915978      179.050241
1.0222            0.000386254921      178.955371       0.80630341    -0.271541877      0.806303402    -0.271541154   0.000337468559      179.053133
1.0224            0.000386999902      178.959192      0.806608945    -0.271217726      0.806608937    -0.271216999   0.000338025388      179.056268
1.0226            0.000387751085      178.963286      0.806915496    -0.270829966      0.806915488    -0.270829234   0.000338586534      179.059646
1.0228            0.000388508573      178.967655      0.807223084    -0.270378501      0.807223076    -0.270377765   0.000339152069      179.063267
1.023             0.000389272471      178.972296      0.807531734    -0.269863256      0.807531726    -0.269862515   0.000339722062      179.067129
1.0232            0.000390042885      178.977209      0.807841468    -0.269284172      0.807841461    -0.269283427   0.000340296589      179.071233
1.0234            0.000390819923      178.982395       0.80815231    -0.268641207      0.808152303    -0.268640458   0.000340875721      179.075578
1.0236            0.000391603696      178.987851      0.808464284     -0.26793434      0.808464276    -0.267933587   0.000341459535      179.080163
1.0238            0.000392394316      178.993576      0.808777413    -0.267163568      0.808777405    -0.267162811   0.000342048107      179.084987
1.024             0.000393191895      178.999571      0.809091721    -0.266328906      0.809091714    -0.266328146   0.000342641514       179.09005
1.0242            0.000393996551      179.005833      0.809407234    -0.265430393      0.809407227    -0.265429629   0.000343239834      179.095351
1.0244              0.0003948084      179.012362      0.809723976    -0.264468086      0.809723969    -0.264467319   0.000343843149      179.100889
1.0246            0.000395627563      179.019156      0.810041972    -0.263442063      0.810041965    -0.263441292   0.000344451539      179.106661
1.0248            0.000396454161      179.026213      0.810361247    -0.262352423       0.81036124     -0.26235165   0.000345065087      179.112669
1.025             0.000397288317      179.033532      0.810681828     -0.26119929      0.810681821    -0.261198514   0.000345683875      179.118909
1.0252            0.000398130158      179.041112      0.811003739    -0.259982808      0.811003732    -0.259982029   0.000346307991       179.12538
1.0254            0.000398979812       179.04895      0.811327008    -0.258703145      0.811327001    -0.258702363   0.000346937519      179.132082
1.0256            0.000399837409      179.057044       0.81165166    -0.257360492      0.811651653    -0.257359708   0.000347572548      179.139012
1.0258             0.00040070308      179.065393      0.811977723    -0.255955065      0.811977716     -0.25595428   0.000348213167      179.146169
1.026             0.000401576962      179.073995      0.812305223    -0.254487106      0.812305216    -0.254486318   0.000348859467       179.15355
1.0262             0.00040245919      179.082846      0.812634187    -0.252956879       0.81263418     -0.25295609   0.000349511539      179.161154
1.0264            0.000403349904      179.091945      0.812964643    -0.251364676      0.812964637    -0.251363885   0.000350169477       179.16898
1.0266            0.000404249246      179.101289       0.81329662    -0.249710815      0.813296613    -0.249710024   0.000350833377      179.177023
1.0268            0.000405157359      179.110875      0.813630144    -0.247995642      0.813630138    -0.247994849   0.000351503333      179.185283
1.027              0.00040607439      179.120701      0.813965244     -0.24621953      0.813965238    -0.246218736   0.000352179445      179.193757
1.0272            0.000407000489      179.130762       0.81430195    -0.244382878      0.814301944    -0.244382083   0.000352861812      179.202442
1.0274            0.000407935806      179.141058      0.814640288    -0.242486116      0.814640283    -0.242485321   0.000353550535      179.211336
1.0276            0.000408880497      179.151583       0.81498029    -0.240529703      0.814980284    -0.240528908   0.000354245717      179.220436
1.0278            0.000409834717      179.162334      0.815321983    -0.238514128      0.815321978    -0.238513333   0.000354947461      179.229738
1.028             0.000410798626      179.173308      0.815665399     -0.23643991      0.815665393    -0.236439115   0.000355655874       179.23924
1.0282            0.000411772388      179.184502      0.816010565      -0.2343076       0.81601056    -0.234306804   0.000356371063      179.248939
1.0284            0.000412756165       179.19591      0.816357513    -0.232117778      0.816357508    -0.232116984   0.000357093137      179.258831
1.0286            0.000413750128      179.207529      0.816706273    -0.229871061      0.816706268    -0.229870267   0.000357822208      179.268913
1.0288            0.000414754446      179.219355      0.817056876    -0.227568094      0.817056871    -0.227567301   0.000358558389      179.279181
1.029             0.000415769293      179.231383      0.817409351    -0.225209559      0.817409346    -0.225208768   0.000359301792       179.28963
1.0292            0.000416794847      179.243609      0.817763731    -0.222796172      0.817763726    -0.222795382   0.000360052536      179.300259
1.0294            0.000417831286      179.256027      0.818120046    -0.220328681      0.818120042    -0.220327893   0.000360810737      179.311061
1.0296            0.000418878795      179.268633      0.818478329    -0.217807873      0.818478324    -0.217807087   0.000361576516      179.322033
1.0298            0.000419937558      179.281421      0.818838609    -0.215234569      0.818838605    -0.215233785   0.000362349995      179.333171
1.03              0.000421007767      179.294386       0.81920092    -0.212609627      0.819200916    -0.212608846   0.000363131298      179.344469
1.0302            0.000422089613      179.307522      0.819565294    -0.209933943       0.81956529    -0.209933164   0.000363920549      179.355923
1.0304            0.000423183293      179.320824      0.819931762    -0.207208451      0.819931758    -0.207207674   0.000364717878      179.367529
1.0306            0.000424289007      179.334285      0.820300358    -0.204434122      0.820300354    -0.204433349   0.000365523412       179.37928
1.0308            0.000425406957      179.347899      0.820671114    -0.201611969       0.82067111    -0.201611199   0.000366337285      179.391171
1.031              0.00042653735      179.361659      0.821044062    -0.198743042      0.821044058    -0.198742276    0.00036715963      179.403198
1.0312            0.000427680397       179.37556      0.821419236    -0.195828435      0.821419233    -0.195827672   0.000367990582      179.415354
1.0314            0.000428836311      179.389593      0.821796669     -0.19286928      0.821796666    -0.192868521   0.000368830281      179.427633
1.0316             0.00043000531      179.403752      0.822176395    -0.189866752      0.822176391    -0.189865998   0.000369678865       179.44003
1.0318            0.000431187617      179.418029      0.822558446     -0.18682207      0.822558442     -0.18682132   0.000370536477      179.452538
1.032             0.000432383457      179.432417      0.822942856    -0.183736493      0.822942853    -0.183735749   0.000371403262       179.46515
1.0322            0.000433593059      179.446907      0.823329659    -0.180611328      0.823329656    -0.180610588   0.000372279367      179.477859
1.0324            0.000434816657      179.461492       0.82371889    -0.177447922      0.823718887    -0.177447188    0.00037316494       179.49066
1.0326             0.00043605449      179.476163      0.824110581    -0.174247669      0.824110578     -0.17424694   0.000374060135      179.503544
1.0328            0.000437306798       179.49091      0.824504768    -0.171012009      0.824504765    -0.171011287   0.000374965103      179.516504
1.033              0.00043857383      179.505726      0.824901483    -0.167742428      0.824901481    -0.167741712   0.000375880002      179.529533
1.0332            0.000439855835      179.520601      0.825300762    -0.164440459       0.82530076    -0.164439749    0.00037680499      179.542623
1.0334            0.000441153069      179.535525      0.825702639    -0.161107681      0.825702637    -0.161106978   0.000377740229      179.555765
1.0336            0.000442465793      179.550489      0.826107148    -0.157745723      0.826107146    -0.157745027   0.000378685882      179.568951
1.0338            0.000443794271      179.565481      0.826514324    -0.154356261      0.826514322    -0.154355572   0.000379642116      179.582174
1.034             0.000445138772      179.580493        0.8269242    -0.150941022      0.826924198     -0.15094034   0.000380609099      179.595423
1.0342            0.000446499571      179.595512      0.827336813     -0.14750178      0.827336811    -0.147501106   0.000381587004       179.60869
1.0344            0.000447876948      179.610528      0.827752195    -0.144040362      0.827752194    -0.144039696   0.000382576005      179.621965
1.0346            0.000449271186       179.62553      0.828170382    -0.140558645      0.828170381    -0.140557987   0.000383576278      179.635239
1.0348            0.000450682576      179.640505      0.828591409    -0.137058557      0.828591407    -0.137057907   0.000384588003      179.648503
1.035             0.000452111412      179.655442      0.829015309    -0.133542077      0.829015307    -0.133541436   0.000385611363      179.661744
1.0352            0.000453557995      179.670327      0.829442117    -0.130011238      0.829442115    -0.130010606   0.000386646544      179.674955
1.0354             0.00045502263      179.685149      0.829871867    -0.126468125      0.829871866    -0.126467503   0.000387693734      179.688122
1.0356             0.00045650563      179.699894      0.830304594    -0.122914877      0.830304593    -0.122914264   0.000388753124      179.701237
1.0358            0.000458007311      179.714548      0.830740332    -0.119353686      0.830740331    -0.119353083   0.000389824909      179.714286
1.036             0.000459527997      179.729097      0.831179116    -0.115786799      0.831179115    -0.115786206   0.000390909286      179.727259
1.0362            0.000461068016      179.743527      0.831620978    -0.112216515      0.831620977    -0.112215933   0.000392006455      179.740143
1.0364            0.000462627703      179.757824      0.832065953    -0.108645193      0.832065952    -0.108644621    0.00039311662      179.752927
1.0366              0.0004642074      179.771972      0.832514075    -0.105075242      0.832514074    -0.105074681   0.000394239988      179.765597
1.0368            0.000465807455      179.785956      0.832965377    -0.101509131      0.832965376     -0.10150858   0.000395376769      179.778141
1.037             0.000467428221      179.799759      0.833419892   -0.0979493815      0.833419892   -0.0979488425   0.000396527176      179.790546
1.0372            0.000469070059      179.813366      0.833877654   -0.0943985739      0.833877653   -0.0943980463   0.000397691426      179.802797
1.0374            0.000470733338      179.826759      0.834338695   -0.0908593439      0.834338695   -0.0908588281   0.000398869739      179.814881
1.0376            0.000472418431      179.839921      0.834803048   -0.0873343844      0.834803048   -0.0873338807   0.000400062338      179.826784
1.0378            0.000474125719      179.852835      0.835270746   -0.0838264454      0.835270746    -0.083825954    0.00040126945      179.838491
1.038             0.000475855591      179.865481      0.835741821    -0.080338334      0.835741821    -0.080337855   0.000402491305      179.849986
1.0382            0.000477608444      179.877842      0.836216303   -0.0768729147      0.836216303   -0.0768724484   0.000403728139      179.861255
1.0384             0.00047938468      179.889898      0.836694226   -0.0734331094      0.836694226   -0.0734326561   0.000404980187      179.872282
1.0386             0.00048118471       179.90163      0.837175619   -0.0700218979      0.837175619   -0.0700214577   0.000406247692       179.88305
1.0388            0.000483008954      179.913017      0.837660513   -0.0666423172      0.837660514   -0.0666418904   0.000407530899      179.893542
1.039             0.000484857837      179.924038       0.83814894   -0.0632974623       0.83814894   -0.0632970492   0.000408830057      179.903743
1.0392            0.000486731796      179.934672      0.838640928   -0.0599904857      0.838640928   -0.0599900864   0.000410145418      179.913634
1.0394            0.000488631271      179.944898      0.839136507   -0.0567245976      0.839136507   -0.0567242123   0.000411477239      179.923198