! TOUCHSTONE file generated by CST MICROWAVE STUDIO
! Date and time: Tue Apr 22 22:35:44 2025
! Project name: L²¨¶Î´°Ô²½Ç¾ØÐÎ´°.cst
! Parameters = {L=18.9; PIN=1000; a=63; b=32; blendraduis=7.13; d=5; s=29; smallblend=0.5; ta=87.96; tb=20.47; trh=3.91; wa=74.97; wb=11.96; wblend=3.01; wr=42.57; wt=10.05}
! Header version: 2018
! Port assignment regex: !\s*Touchstone port\s*([0-9]+)\s*=\s*(CST MWS port|CST DS port)\s*([0-9]+|Zmin|Zmax)\s*\(\"(.*)\"\)(\s*mode\s*([0-9]+))?.*
! Touchstone port assignment:
! Touchstone port 1 = CST MWS port 1 ("")
! Touchstone port 2 = CST MWS port 2 ("")
! S-Parameters are not renormalized. Unphysical impedance of 0 will be written to the file.
# GHz S MA R 0
1                   0.0244464614     -1.08557863      0.517277065   -0.0727041174      0.517277065   -0.0727041174     0.0244969259     -1.08379296
1.0002              0.0244472267     -1.08621037      0.517760049   -0.0748430662      0.517760048   -0.0748430436     0.0244977308     -1.08442553
1.0004              0.0244480263     -1.08686332      0.518243947   -0.0769768491      0.518243946   -0.0769768035     0.0244985701     -1.08507927
1.0006              0.0244488607     -1.08753773      0.518728765   -0.0791051045      0.518728764   -0.0791050355     0.0244994441     -1.08575443
1.0008                0.02444973     -1.08823384       0.51921451   -0.0812274702      0.519214509   -0.0812273777      0.024500353     -1.08645126
1.001               0.0244506345      -1.0889519      0.519701188   -0.0833435844      0.519701186   -0.0833434679      0.024501297     -1.08717001
1.0012              0.0244515745     -1.08969217      0.520188803    -0.085453085      0.520188801    -0.085452944     0.0245022766     -1.08791092
1.0014              0.0244525502     -1.09045489      0.520677364   -0.0875556096      0.520677361    -0.087555444     0.0245032918     -1.08867424
1.0016               0.024453562     -1.09124032      0.521166874   -0.0896507964      0.521166872   -0.0896506058     0.0245043431     -1.08946024
1.0018              0.0244546101     -1.09204872      0.521657342   -0.0917382832      0.521657339   -0.0917380673     0.0245054306     -1.09026916
1.002               0.0244556947     -1.09288034      0.522148773   -0.0938177081       0.52214877   -0.0938174666     0.0245065547     -1.09110126
1.0022              0.0244568162     -1.09373544      0.522641174   -0.0958887096       0.52264117   -0.0958884422     0.0245077156     -1.09195679
1.0024              0.0244579748     -1.09461428      0.523134551   -0.0979509262      0.523134547   -0.0979506325     0.0245089136     -1.09283602
1.0026              0.0244591709     -1.09551711      0.523628912    -0.100003997      0.523628907    -0.100003676      0.024510149      -1.0937392
1.0028              0.0244604046     -1.09644421      0.524124262     -0.10204756      0.524124257    -0.102047213      0.024511422     -1.09466659
1.003               0.0244616763     -1.09739582      0.524620608    -0.104081257      0.524620603    -0.104080883     0.0245127331     -1.09561846
1.0032              0.0244629864     -1.09837222      0.525117958    -0.106104727      0.525117953    -0.106104325     0.0245140823     -1.09659507
1.0034               0.024464335     -1.09937367      0.525616319     -0.10811761      0.525616313    -0.108117181     0.0245154702     -1.09759667
1.0036              0.0244657225     -1.10040044      0.526115697    -0.110119549      0.526115691    -0.110119092     0.0245168969     -1.09862354
1.0038              0.0244671492     -1.10145279        0.5266161    -0.112110185      0.526616094      -0.1121097     0.0245183627     -1.09967594
1.004               0.0244686154       -1.102531      0.527117535    -0.114089161      0.527117529    -0.114088647      0.024519868     -1.10075415
1.0042              0.0244701214     -1.10363533       0.52762001     -0.11605612      0.527620003    -0.116055578     0.0245214131     -1.10185842
1.0044              0.0244716676     -1.10476605      0.528123532    -0.118010708      0.528123525    -0.118010137     0.0245229983     -1.10298903
1.0046              0.0244732541     -1.10592344      0.528628108    -0.119952569      0.528628101    -0.119951968     0.0245246239     -1.10414625
1.0048              0.0244748815     -1.10710777      0.529133747    -0.121881349       0.52913374     -0.12188072     0.0245262902     -1.10533036
1.005               0.0244765499     -1.10831931      0.529640457    -0.123796698      0.529640449    -0.123796039     0.0245279975     -1.10654162
1.0052              0.0244782597     -1.10955835      0.530148244    -0.125698262      0.530148236    -0.125697573     0.0245297462     -1.10778032
1.0054              0.0244800113     -1.11082515      0.530657118    -0.127585692      0.530657109    -0.127584973     0.0245315366     -1.10904672
1.0056              0.0244818049        -1.11212      0.531167086     -0.12945864      0.531167077    -0.129457891      0.024533369     -1.11034111
1.0058               0.024483641     -1.11344318      0.531678156    -0.131316758      0.531678147    -0.131315978     0.0245352438     -1.11166376
1.006               0.0244855198     -1.11479496      0.532190338    -0.133159699      0.532190328    -0.133158889     0.0245371613     -1.11301496
1.0062              0.0244874417     -1.11617563      0.532703638    -0.134987121      0.532703629     -0.13498628     0.0245391218     -1.11439498
1.0064               0.024489407     -1.11758547      0.533218067    -0.136798679      0.533218058    -0.136797808     0.0245411257      -1.1158041
1.0066              0.0244914161     -1.11902477      0.533733633    -0.138594034      0.533733623    -0.138593131     0.0245431734     -1.11724261
1.0068              0.0244934694     -1.12049381      0.534250344    -0.140372845      0.534250334    -0.140371911     0.0245452652     -1.11871079
1.007               0.0244955673     -1.12199287      0.534768209    -0.142134775      0.534768199     -0.14213381     0.0245474015     -1.12020894
1.0072                0.02449771     -1.12352224      0.535287238     -0.14387949      0.535287228    -0.143878493     0.0245495826     -1.12173732
1.0074              0.0244998979     -1.12508222       0.53580744    -0.145606655      0.535807429    -0.145605627     0.0245518089     -1.12329623
1.0076              0.0245021315     -1.12667309      0.536328823     -0.14731594      0.536328812     -0.14731488     0.0245540807     -1.12488596
1.0078               0.024504411     -1.12829514      0.536851398    -0.149007016      0.536851387    -0.149005924     0.0245563985      -1.1265068
1.008                0.024506737     -1.12994866      0.537375173    -0.150679555      0.537375162    -0.150678431     0.0245587626     -1.12815904
1.0082              0.0245091097     -1.13163395      0.537900159    -0.152333234      0.537900147    -0.152332078     0.0245611735     -1.12984297
1.0084              0.0245115296     -1.13335129      0.538426364    -0.153967731      0.538426353    -0.153966543     0.0245636314     -1.13155887
1.0086              0.0245139971     -1.13510098        0.5389538    -0.155582727      0.538953789    -0.155581506     0.0245661369     -1.13330705
1.0088              0.0245165125     -1.13688333      0.539482476    -0.157177905      0.539482464    -0.157176652     0.0245686902      -1.1350878
1.009               0.0245190763     -1.13869861      0.540012402    -0.158752951       0.54001239    -0.158751666     0.0245712918     -1.13690141
1.0092              0.0245216888     -1.14054714      0.540543588    -0.160307556      0.540543576    -0.160306239     0.0245739422     -1.13874818
1.0094              0.0245243505     -1.14242921      0.541076045    -0.161841411      0.541076033    -0.161840061     0.0245766416     -1.14062841
1.0096              0.0245270619     -1.14434511      0.541609784    -0.163354211      0.541609771    -0.163352828     0.0245793906     -1.14254239
1.0098              0.0245298232     -1.14629515      0.542144814    -0.164845655      0.542144802     -0.16484424     0.0245821896     -1.14449042
1.01                0.0245326351     -1.14827962      0.542681147    -0.166315445      0.542681134    -0.166313997      0.024585039      -1.1464728
1.0102              0.0245354978     -1.15029884      0.543218794    -0.167763286      0.543218781    -0.167761806     0.0245879392     -1.14848983
1.0104              0.0245384119     -1.15235309      0.543757765    -0.169188886      0.543757752    -0.169187374     0.0245908906     -1.15054182
1.0106              0.0245413778     -1.15444269      0.544298072    -0.170591959      0.544298059    -0.170590414     0.0245938938     -1.15262906
1.0108              0.0245443959     -1.15656794      0.544839726     -0.17197222      0.544839713    -0.171970642     0.0245969491     -1.15475185
1.011               0.0245474666     -1.15872914      0.545382739    -0.173329389      0.545382726    -0.173327779     0.0246000571     -1.15691051
1.0112              0.0245505906     -1.16092659      0.545927122     -0.17466319      0.545927109    -0.174661547     0.0246032181     -1.15910533
1.0114              0.0245537682     -1.16316061      0.546472887    -0.175973351      0.546472873    -0.175971676     0.0246064327     -1.16133661
1.0116              0.0245569999     -1.16543149      0.547020045    -0.177259604      0.547020032    -0.177257897     0.0246097012     -1.16360467
1.0118              0.0245602861     -1.16773955       0.54756861    -0.178521686      0.547568596    -0.178519946     0.0246130243     -1.16590981
1.012               0.0245636275      -1.1700851      0.548118592    -0.179759337      0.548118578    -0.179757565     0.0246164024     -1.16825233
1.0122              0.0245670243     -1.17246843      0.548670004    -0.180972304      0.548669991    -0.180970499      0.024619836     -1.17063254
1.0124              0.0245704773     -1.17488987       0.54922286    -0.182160335      0.549222846    -0.182158499     0.0246233255     -1.17305076
1.0126              0.0245739868     -1.17734972       0.54977717    -0.183323186      0.549777156    -0.183321318     0.0246268715     -1.17550728
1.0128              0.0245775534     -1.17984828      0.550332949    -0.184460618      0.550332935    -0.184458717     0.0246304745     -1.17800242
1.013               0.0245811777     -1.18238588      0.550890208    -0.185572394      0.550890194    -0.185570462      0.024634135     -1.18053649
1.0132                0.02458486     -1.18496281      0.551448961    -0.186658284      0.551448947     -0.18665632     0.0246378535     -1.18310979
1.0134               0.024588601      -1.1875794      0.552009222    -0.187718065      0.552009208     -0.18771607     0.0246416306     -1.18572263
1.0136              0.0245924012     -1.19023595      0.552571003    -0.188751516      0.552570989     -0.18874949     0.0246454668     -1.18837533
1.0138              0.0245962612     -1.19293277      0.553134318    -0.189758425      0.553134304    -0.189756367     0.0246493626      -1.1910682
1.014               0.0246001814     -1.19567018       0.55369918    -0.190738582      0.553699166    -0.190736494     0.0246533187     -1.19380155
1.0142              0.0246041625     -1.19844849      0.554265604    -0.191691787       0.55426559    -0.191689667     0.0246573355     -1.19657568
1.0144              0.0246082051     -1.20126801      0.554833603    -0.192617842      0.554833589    -0.192615692     0.0246614136     -1.19939091
1.0146              0.0246123097     -1.20412906      0.555403192    -0.193516558      0.555403178    -0.193514377     0.0246655537     -1.20224755
1.0148              0.0246164769     -1.20703194      0.555974385     -0.19438775      0.555974371     -0.19438554     0.0246697562     -1.20514592
1.015               0.0246207073     -1.20997698      0.556547196    -0.195231242      0.556547182    -0.195229001     0.0246740218     -1.20808632
1.0152              0.0246250014     -1.21296447       0.55712164    -0.196046862      0.557121626    -0.196044591     0.0246783511     -1.21106906
1.0154                0.02462936     -1.21599475      0.557697731    -0.196834445      0.557697718    -0.196832146     0.0246827447     -1.21409447
1.0156              0.0246337836     -1.21906811      0.558275486    -0.197593835      0.558275472    -0.197591506     0.0246872032     -1.21716285
1.0158              0.0246382729     -1.22218488      0.558854917    -0.198324881      0.558854904    -0.198322523     0.0246917273     -1.22027451
1.016               0.0246428285     -1.22534537      0.559436042    -0.199027438      0.559436028    -0.199025052     0.0246963175     -1.22342976
1.0162               0.024647451     -1.22854988      0.560018875    -0.199701372      0.560018862    -0.199698957     0.0247009745     -1.22662892
1.0164              0.0246521411     -1.23179874      0.560603432    -0.200346552      0.560603419    -0.200344109      0.024705699     -1.22987231
1.0166              0.0246568995     -1.23509225      0.561189729    -0.200962858      0.561189716    -0.200960387     0.0247104916     -1.23316022
1.0168              0.0246617267     -1.23843073      0.561777782    -0.201550175      0.561777768    -0.201547677      0.024715353     -1.23649297
1.017               0.0246666237     -1.24181448      0.562367606    -0.202108398      0.562367593    -0.202105873     0.0247202839     -1.23987088
1.0172              0.0246715909     -1.24524383      0.562959219    -0.202637429      0.562959205    -0.202634877      0.024725285     -1.24329424
1.0174              0.0246766291     -1.24871909      0.563552636    -0.203137178      0.563552622    -0.203134599     0.0247303569     -1.24676339
1.0176              0.0246817391     -1.25224055      0.564147874    -0.203607563      0.564147861    -0.203604958     0.0247355005     -1.25027861
1.0178              0.0246869215     -1.25580854       0.56474495    -0.204048511      0.564744937     -0.20404588     0.0247407163     -1.25384023
1.018               0.0246921771     -1.25942337      0.565343881    -0.204459957      0.565343868    -0.204457301     0.0247460052     -1.25744855
1.0182              0.0246975067     -1.26308533      0.565944684    -0.204841846      0.565944672    -0.204839166     0.0247513678     -1.26110388
1.0184              0.0247029109     -1.26679475      0.566547377    -0.205194131      0.566547365    -0.205191426      0.024756805     -1.26480653
1.0186              0.0247083906     -1.27055193      0.567151977    -0.205516774      0.567151965    -0.205514044     0.0247623175      -1.2685568
1.0188              0.0247139466     -1.27435718      0.567758501    -0.205809745      0.567758489    -0.205806992     0.0247679061     -1.27235501
1.019               0.0247195796      -1.2782108      0.568366968    -0.206073026      0.568366956     -0.20607025     0.0247735716     -1.27620144
1.0192              0.0247252904      -1.2821131      0.568977396    -0.206306606      0.568977384    -0.206303807     0.0247793147     -1.28009642
1.0194              0.0247310799     -1.28606438      0.569589803    -0.206510485      0.569589791    -0.206507664     0.0247851364     -1.28404025
1.0196              0.0247369489     -1.29006495      0.570204207    -0.206684673      0.570204195     -0.20668183     0.0247910373     -1.28803322
1.0198              0.0247428982     -1.29411511      0.570820627    -0.206829189      0.570820615    -0.206826325     0.0247970184     -1.29207564
1.02                0.0247489287     -1.29821517      0.571439081    -0.206944063       0.57143907    -0.206941178     0.0248030806     -1.29616781
1.0202              0.0247550413     -1.30236541      0.572059589    -0.207029334      0.572059578    -0.207026429     0.0248092246     -1.30031002
1.0204              0.0247612368     -1.30656614      0.572682171    -0.207085054       0.57268216    -0.207082129     0.0248154513     -1.30450259
1.0206              0.0247675162     -1.31081767      0.573306844    -0.207111282      0.573306833    -0.207108337     0.0248217617     -1.30874579
1.0208              0.0247738803     -1.31512027      0.573933629     -0.20710809      0.573933619    -0.207105126     0.0248281567     -1.31303994
1.021               0.0247803301     -1.31947426      0.574562546     -0.20707556      0.574562536    -0.207072579     0.0248346372     -1.31738532
1.0212              0.0247868665     -1.32387992      0.575193614    -0.207013787      0.575193604    -0.207010788     0.0248412041     -1.32178222
1.0214              0.0247934905     -1.32833755      0.575826854    -0.206922875      0.575826844    -0.206919859     0.0248478583     -1.32623094
1.0216               0.024800203     -1.33284742      0.576462286     -0.20680294      0.576462276    -0.206799907     0.0248546009     -1.33073177
1.0218              0.0248070051     -1.33740985       0.57709993    -0.206654109      0.577099921     -0.20665106     0.0248614328     -1.33528498
1.022               0.0248138977      -1.3420251      0.577739807    -0.206476521      0.577739798    -0.206473457     0.0248683551     -1.33989088
1.0222              0.0248208819     -1.34669347      0.578381938    -0.206270327      0.578381929    -0.206267249     0.0248753687     -1.34454974
1.0224              0.0248279587     -1.35141524      0.579026344    -0.206035691      0.579026336    -0.206032599     0.0248824746     -1.34926185
1.0226              0.0248351291     -1.35619068      0.579673047    -0.205772787      0.579673039    -0.205769681      0.024889674     -1.35402748
1.0228              0.0248423942     -1.36102008      0.580322067    -0.205481802      0.580322059    -0.205478683     0.0248969679     -1.35884691
1.023               0.0248497552     -1.36590372      0.580973427    -0.205162936      0.580973419    -0.205159805     0.0249043574     -1.36372043
1.0232              0.0248572131     -1.37084186      0.581627148      -0.2048164       0.58162714    -0.204813258     0.0249118435      -1.3686483
1.0234              0.0248647691     -1.37583478      0.582283252    -0.204442419      0.582283245    -0.204439266     0.0249194275     -1.37363079
1.0236              0.0248724242     -1.38088276      0.582941762    -0.204041231      0.582941755    -0.204038067     0.0249271104     -1.37866817
1.0238              0.0248801797     -1.38598604        0.5836027    -0.203613085      0.583602693    -0.203609912     0.0249348934     -1.38376071
1.024               0.0248880368     -1.39114491      0.584266089    -0.203158245      0.584266082    -0.203155063     0.0249427778     -1.38890868
1.0242              0.0248959967     -1.39635963      0.584931951    -0.202676987      0.584931945    -0.202673797     0.0249507646     -1.39411233
1.0244              0.0249040605     -1.40163044       0.58560031    -0.202169601      0.585600304    -0.202166404     0.0249588552     -1.39937192
1.0246              0.0249122296     -1.40695761      0.586271189    -0.201636389      0.586271183    -0.201633186     0.0249670507     -1.40468771
1.0248              0.0249205051     -1.41234139       0.58694461    -0.201077669      0.586944605     -0.20107446     0.0249753524     -1.41005996
1.025               0.0249288885     -1.41778203      0.587620599     -0.20049377      0.587620594    -0.200490556     0.0249837617      -1.4154889
1.0252              0.0249373811     -1.42327978      0.588299178    -0.199885036      0.588299174    -0.199881817     0.0249922798     -1.42097479
1.0254               0.024945984     -1.42883488      0.588980373    -0.199251825      0.588980368    -0.199248603     0.0250009081     -1.42651787
1.0256              0.0249546988     -1.43444756      0.589664206    -0.198594508      0.589664201    -0.198591283      0.025009648     -1.43211838
1.0258              0.0249635269     -1.44011808      0.590350702    -0.197913471      0.590350698    -0.197910244     0.0250185007     -1.43777656
1.026               0.0249724695     -1.44584666      0.591039886    -0.197209113      0.591039883    -0.197205885     0.0250274678     -1.44349264
1.0262              0.0249815283     -1.45163353      0.591731784    -0.196481849       0.59173178     -0.19647862     0.0250365506     -1.44926685
1.0264              0.0249907046     -1.45747892      0.592426419    -0.195732106      0.592426416    -0.195728877     0.0250457506     -1.45509941
1.0266              0.0249999999     -1.46338305      0.593123817    -0.194960326      0.593123814    -0.194957099     0.0250550694     -1.46099055
1.0268              0.0250094158     -1.46934613      0.593824003    -0.194166968      0.593824001    -0.194163742     0.0250645083     -1.46694049
1.027               0.0250189537     -1.47536839      0.594527004    -0.193352501      0.594527002    -0.193349278     0.0250740691     -1.47294944
1.0272              0.0250286154     -1.48145003      0.595232845    -0.192517411      0.595232843    -0.192514192     0.0250837531     -1.47901761
1.0274              0.0250384024     -1.48759126      0.595941551      -0.1916622       0.59594155    -0.191658985     0.0250935621      -1.4851452
1.0276              0.0250483162     -1.49379228       0.59665315    -0.190787382      0.596653149    -0.190784172     0.0251034977     -1.49133243
1.0278              0.0250583587     -1.50005328      0.597367667    -0.189893487      0.597367667    -0.189890283     0.0251135615     -1.49757948
1.028               0.0250685315     -1.50637447       0.59808513    -0.188981058      0.598085129    -0.188977861     0.0251237553     -1.50388655
1.0282              0.0250788363     -1.51275602      0.598805564    -0.188050656      0.598805564    -0.188047466     0.0251340806     -1.51025383
1.0284              0.0250892749     -1.51919813      0.599528998    -0.187102853      0.599528998    -0.187099672     0.0251445394      -1.5166815
1.0286              0.0250998492     -1.52570096      0.600255458    -0.186138238      0.600255458    -0.186135066     0.0251551334     -1.52316973
1.0288              0.0251105608      -1.5322647      0.600984971    -0.185157414      0.600984972    -0.185154253     0.0251658645     -1.52971871
1.029               0.0251214118     -1.53888951      0.601717566    -0.184160999      0.601717567    -0.184157849     0.0251767344     -1.53632861
1.0292              0.0251324039     -1.54557556      0.602453269    -0.183149625      0.602453271    -0.183146487     0.0251877451     -1.54299958
1.0294              0.0251435393       -1.552323       0.60319211     -0.18212394      0.603192112    -0.182120814     0.0251988986     -1.54973178
1.0296              0.0251548198     -1.55913199      0.603934116    -0.181084604      0.603934118    -0.181081492     0.0252101967     -1.55652538
1.0298              0.0251662474     -1.56600267      0.604679316    -0.180032294      0.604679318    -0.180029197     0.0252216416     -1.56338051
1.03                0.0251778243     -1.57293518      0.605427738    -0.178967701       0.60542774    -0.178964619     0.0252332352     -1.57029732
1.0302              0.0251895525     -1.57992967       0.60617941    -0.177891529      0.606179413    -0.177888464     0.0252449798     -1.57727594
1.0304              0.0252014341     -1.58698626      0.606934363    -0.176804498      0.606934367    -0.176801449     0.0252568773     -1.58431651
1.0306              0.0252134715     -1.59410507      0.607692625     -0.17570734      0.607692629     -0.17570431       0.02526893     -1.59141916
1.0308              0.0252256668     -1.60128623      0.608454226    -0.174600803       0.60845423    -0.174597792     0.0252811401     -1.59858399
1.031               0.0252380222     -1.60852984      0.609219194    -0.173485649      0.609219199    -0.173482658     0.0252935099     -1.60581113
1.0312              0.0252505402     -1.61583601      0.609987561    -0.172362653      0.609987566    -0.172359681     0.0253060418     -1.61310067
1.0314               0.025263223     -1.62320485      0.610759355    -0.171232602       0.61075936    -0.171229652     0.0253187379     -1.62045273
1.0316              0.0252760732     -1.63063644      0.611534608    -0.170096299      0.611534613    -0.170093372     0.0253316009      -1.6278674
1.0318              0.0252890931     -1.63813087      0.612313349     -0.16895456      0.612313354    -0.168951656     0.0253446331     -1.63534476
1.032               0.0253022854     -1.64568822      0.613095609    -0.167808213      0.613095614    -0.167805333     0.0253578371      -1.6428849
1.0322              0.0253156525     -1.65330857      0.613881418    -0.166658099      0.613881424    -0.166655244     0.0253712154     -1.65048789
1.0324              0.0253291972     -1.66099198      0.614670808    -0.165505072      0.614670815    -0.165502242     0.0253847706      -1.6581538
1.0326              0.0253429221     -1.66873851       0.61546381    -0.164349998      0.615463817    -0.164347195     0.0253985055     -1.66588268
1.0328              0.0253568299     -1.67654821      0.616260455    -0.163193755      0.616260462    -0.163190979     0.0254124227     -1.67367461
1.033               0.0253709235     -1.68442114      0.617060775    -0.162037233      0.617060782    -0.162034485     0.0254265251     -1.68152961
1.0332              0.0253852058     -1.69235732      0.617864801    -0.160881334      0.617864808    -0.160878615     0.0254408155     -1.68944774
1.0334              0.0253996796      -1.7003568      0.618672565     -0.15972697      0.618672573     -0.15972428     0.0254552968     -1.69742903
1.0336               0.025414348     -1.70841959        0.6194841    -0.158575064      0.619484108    -0.158572405     0.0254699721      -1.7054735
1.0338               0.025429214     -1.71654571      0.620299437    -0.157426551      0.620299445    -0.157423923     0.0254848442     -1.71358117
1.034               0.0254442807     -1.72473517       0.62111861    -0.156282373      0.621118619    -0.156279777     0.0254999165     -1.72175206
1.0342              0.0254595514     -1.73298798      0.621941651    -0.155143486       0.62194166    -0.155140923      0.025515192     -1.72998617
1.0344              0.0254750292     -1.74130413      0.622768593    -0.154010851      0.622768602    -0.154008321     0.0255306739     -1.73828349
1.0346              0.0254907176      -1.7496836      0.623599469    -0.152885439      0.623599478    -0.152882944     0.0255463657     -1.74664402
1.0348                0.02550662     -1.75812637      0.624434312    -0.151768231      0.624434321    -0.151765771     0.0255622707     -1.75506773
1.035               0.0255227397     -1.76663243      0.625273156    -0.150660215      0.625273166     -0.15065779     0.0255783924     -1.76355461
1.0352              0.0255390805     -1.77520172      0.626116035    -0.149562384      0.626116045    -0.149559995     0.0255947343     -1.77210462
1.0354              0.0255556459     -1.78383422      0.626962983     -0.14847574      0.626962993    -0.148473389        0.0256113     -1.78071772
1.0356              0.0255724397     -1.79252986      0.627814034    -0.147401292      0.627814044    -0.147398979     0.0256280933     -1.78939386
1.0358              0.0255894656     -1.80128859      0.628669222    -0.146340053      0.628669233    -0.146337777      0.025645118     -1.79813299
1.036               0.0256067277     -1.81011034      0.629528582    -0.145293039      0.629528593    -0.145290803      0.025662378     -1.80693504
1.0362              0.0256242298     -1.81899504      0.630392149    -0.144261275       0.63039216    -0.144259079     0.0256798772     -1.81579994
1.0364              0.0256419762      -1.8279426      0.631259958    -0.143245787      0.631259969     -0.14324363     0.0256976197     -1.82472762
1.0366              0.0256599709     -1.83695295      0.632132044    -0.142247602      0.632132055    -0.142245486     0.0257156096     -1.83371798
1.0368              0.0256782182     -1.84602597      0.633008442    -0.141267753      0.633008453    -0.141265679     0.0257338513     -1.84277095
1.037               0.0256967225     -1.85516158      0.633889189    -0.140307272        0.6338892     -0.14030524     0.0257523491     -1.85188641
1.0372              0.0257154884     -1.86435965      0.634774321    -0.139367193      0.634774332    -0.139365203     0.0257711074     -1.86106425
1.0374              0.0257345204     -1.87362006      0.635663873    -0.138448549      0.635663884    -0.138446601     0.0257901309     -1.87030438
1.0376              0.0257538231      -1.8829427      0.636557882    -0.137552371      0.636557894    -0.137550466     0.0258094241     -1.87960665
1.0378              0.0257734015     -1.89232743      0.637456386    -0.136679691      0.637456397     -0.13667783      0.025828992     -1.88897095
1.038               0.0257932605      -1.9017741       0.63835942    -0.135831535      0.638359432    -0.135829718     0.0258488394     -1.89839714
1.0382               0.025813405     -1.91128258      0.639267023    -0.135008927      0.639267035    -0.135007154     0.0258689713     -1.90788507
1.0384              0.0258338403      -1.9208527      0.640179232    -0.134212887      0.640179243    -0.134211159     0.0258893929      -1.9174346
1.0386              0.0258545717     -1.93048431      0.641096084    -0.133444427      0.641096096    -0.133442745     0.0259101095     -1.92704557
1.0388              0.0258756046     -1.94017725      0.642017619    -0.132704555      0.642017631    -0.132702918     0.0259311264     -1.93671783
1.039               0.0258969446     -1.94993133      0.642943874     -0.13199427      0.642943886    -0.131992678     0.0259524493      -1.9464512
1.0392              0.0259185974     -1.95974639      0.643874888     -0.13131456        0.6438749    -0.131313014     0.0259740838     -1.95624552