! TOUCHSTONE file generated by CST MICROWAVE STUDIO
! Date and time: Tue Apr 22 22:22:58 2025
! Project name: L≤®∂Œ¥∞÷ÿππ-µπ‘≤Ω«0.5.cst
! Parameters = {L=18.9; PIN=1000; a=63; b=32; blendraduis=6.41116; d=5; s=29; smallblend=0.5; ta=69.196; tb=12.628; trh=3.10149; wr=42.57; wt=5.91181}
! Header version: 2018
! Port assignment regex: !\s*Touchstone port\s*([0-9]+)\s*=\s*(CST MWS port|CST DS port)\s*([0-9]+|Zmin|Zmax)\s*\(\"(.*)\"\)(\s*mode\s*([0-9]+))?.*
! Touchstone port assignment:
! Touchstone port 1 = CST MWS port 1 ("")
! Touchstone port 2 = CST MWS port 2 ("")
! S-Parameters are not renormalized. Unphysical impedance of 0 will be written to the file.
# GHz S MA R 0
1                     0.38236812 -8.17011055e-11     0.0953832778            -180     0.0953832765            -180       0.38203455 -4.35576489e-10
1.0002               0.384394816  0.000270349948     0.0975012569      179.995773     0.0975012595      179.995767      0.384059248  0.000269572676
1.0004               0.386443902  0.000535593282     0.0996425089      179.991745     0.0996425153      179.991735      0.386106316  0.000534046618
1.0006               0.388515747  0.000795731048       0.10180741      179.987908       0.10180742      179.987892      0.388176121  0.000793422583
1.0008               0.390610726   0.00105076519      0.103996343      179.984252      0.103996357      179.984232      0.390269038   0.00104770258
1.001                0.392729223   0.00130069849      0.106209702      179.980771      0.106209719      179.980746      0.392385451   0.00129688945
1.0012                0.39487163   0.00154553455      0.108447888      179.977456      0.108447908      179.977427       0.39452575   0.00154098686
1.0014               0.397038348    0.0017852778       0.11071131        179.9743      0.110711333      179.974267      0.396690338   0.00177999933
1.0016               0.399229787   0.00201993354      0.113000387      179.971297      0.113000414       179.97126      0.398879623   0.00201393219
1.0018               0.401446366    0.0022495079      0.115315548      179.968439      0.115315578      179.968399      0.401094024   0.00224279165
1.002                0.403688513   0.00247400784      0.117657231      179.965723      0.117657263      179.965678       0.40333397   0.00246658474
1.0022               0.405956669   0.00269344124      0.120025883       179.96314      0.120025918      179.963092      0.405599899   0.00268531938
1.0024                0.40825128   0.00290781676      0.122421962      179.960687         0.122422      179.960636      0.407892258   0.00289900432
1.0026               0.410572805   0.00311714398      0.124845937      179.958358      0.124845977      179.958304      0.410211507    0.0031076492
1.0028               0.412921715   0.00332143334      0.127298287      179.956149      0.127298329      179.956091      0.412558113   0.00331126452
1.003                0.415298488   0.00352069615      0.129779501      179.954054      0.129779545      179.953993      0.414932557   0.00350986164
1.0032               0.417703618   0.00371494459      0.132290082      179.952069      0.132290128      179.952005      0.417335331   0.00370345283
1.0034               0.420137607   0.00390419174      0.134830542       179.95019       0.13483059      179.950124      0.419766936    0.0038920512
1.0036                0.42260097   0.00408845154      0.137401406      179.948414      0.137401456      179.948345      0.422227887   0.00407567078
1.0038               0.425094234   0.00426773884      0.140003213      179.946736      0.140003265      179.946665      0.424718711   0.00425432647
1.004                0.427617939   0.00444206939      0.142636512      179.945154      0.142636566       179.94508      0.427239948   0.00442803407
1.0042                0.43017264    0.0046114598      0.145301867      179.943662      0.145301922      179.943586       0.42979215   0.00459681029
1.0044                 0.4327589   0.00477592761      0.147999856      179.942259      0.147999912      179.942181      0.432375883   0.00476067269
1.0046               0.435377303   0.00493549127      0.150731068      179.940941      0.150731125       179.94086      0.434991727   0.00491963979
1.0048                0.43802844   0.00509017011      0.153496109      179.939705      0.153496167      179.939622      0.437640275   0.00507373099
1.005                0.440712922   0.00523998436      0.156295599      179.938548      0.156295658      179.938464      0.440322137   0.00522296657
1.0052               0.443431374    0.0053849552      0.159130174      179.937468      0.159130234      179.937382      0.443037936   0.00536736777
1.0054               0.446184434   0.00552510466      0.162000485      179.936462      0.162000545      179.936373       0.44578831   0.00550695673
1.0056               0.448972759   0.00566045577      0.164907199      179.935527       0.16490726      179.935437      0.448573917   0.00564175643
1.0058               0.451797022   0.00579103241         0.167851      179.934661      0.167851061      179.934569      0.451395427    0.0057717909
1.006                0.454657913   0.00591685938       0.17083259      179.933861      0.170832651      179.933768       0.45425353   0.00589708496
1.0062               0.457556138   0.00603796241      0.173852687      179.933126      0.173852748      179.933031      0.457148933   0.00601766441
1.0064               0.460492423   0.00615436818       0.17691203      179.932453      0.176912091      179.932357       0.46008236   0.00613355596
1.0066               0.463467514   0.00626610425      0.180011374       179.93184      0.180011435      179.931743      0.463054556   0.00624478724
1.0068               0.466482174    0.0063731991      0.183151496      179.931285      0.183151557      179.931187      0.466066283    0.0063513868
1.007                0.469537187   0.00647568217      0.186333192      179.930787      0.186333252      179.930687      0.469118326   0.00645338411
1.0072               0.472633358   0.00657358377       0.18955728      179.930343      0.189557339      179.930242      0.472211488   0.00655080956
1.0074               0.475771513   0.00666693519      0.192824598      179.929951      0.192824657       179.92985      0.475346595   0.00664369446
1.0076               0.478952501   0.00675576859      0.196136007      179.929611      0.196136065      179.929508      0.478524494   0.00673207102
1.0078               0.482177194   0.00684011706      0.199492392      179.929319      0.199492449      179.929216      0.481746057   0.00681597242
1.008                0.485446486   0.00692001464      0.202894661      179.929076      0.202894717      179.928971      0.485012177   0.00689543272
1.0082               0.488761297   0.00699549626      0.206343746      179.928878      0.206343801      179.928772      0.488323773   0.00697048688
1.0084               0.492122572   0.00706659776      0.209840606      179.928725      0.209840659      179.928618       0.49168179   0.00704117085
1.0086               0.495531282   0.00713335596      0.213386225      179.928614      0.213386276      179.928507      0.495087197    0.0071075214
1.0088               0.498988426   0.00719580849      0.216981615      179.928546      0.216981664      179.928438      0.498540992    0.0071695763
1.009                 0.50249503   0.00725399396      0.220627816      179.928517      0.220627864      179.928409      0.502044201   0.00722737415
1.0092               0.506052149   0.00730795186      0.224325897      179.928528      0.224325943      179.928419      0.505597878   0.00728095453
1.0094                0.50966087   0.00735772262      0.228076959      179.928576      0.228077003      179.928467      0.509203107   0.00733035785
1.0096               0.513322308   0.00740334752      0.231882132       179.92866      0.231882173      179.928551      0.512861006   0.00737562548
1.0098               0.517037614   0.00744486879      0.235742579       179.92878      0.235742618       179.92867       0.51657272   0.00741679966
1.01                 0.520807969   0.00748232951      0.239659498      179.928934      0.239659534      179.928824      0.520339433   0.00745392351
1.0102               0.524634592   0.00751577367      0.243634121       179.92912      0.243634154       179.92901      0.524162361   0.00748704108
1.0104               0.528518735   0.00754524614      0.247667716      179.929338      0.247667746      179.929228      0.528042755   0.00751619726
1.0106                0.53246169   0.00757079267      0.251761588      179.929587      0.251761615      179.929476      0.531981905   0.00754143785
1.0108               0.536464786   0.00759245989      0.255917082      179.929865      0.255917106      179.929754      0.535981141   0.00756280947
1.011                0.540529393   0.00761029528      0.260135584      179.930172      0.260135605      179.930061      0.540041829   0.00758035968
1.0112               0.544656922    0.0076243472       0.26441852      179.930506      0.264418537      179.930395      0.544165381   0.00759413684
1.0114               0.548848828   0.00763466484       0.26876736      179.930867      0.268767374      179.930756       0.54835325   0.00760419018
1.0116               0.553106612   0.00764129826      0.273183621      179.931253      0.273183631      179.931142      0.552606934    0.0076105698
1.0118               0.557431819   0.00764429836      0.277668865      179.931664      0.277668871      179.931553      0.556927979    0.0076133266
1.012                0.561826045   0.00764371687      0.282224703      179.932099      0.282224705      179.931988      0.561317979   0.00761251233
1.0122               0.566290937   0.00763960631      0.286852797      179.932556      0.286852795      179.932445      0.565778578   0.00760817957
1.0124               0.570828191   0.00763202007      0.291554863      179.933035      0.291554856      179.932925      0.570311472   0.00760038169
1.0126               0.575439562    0.0076210123      0.296332669      179.933535      0.296332658      179.933425      0.574918413   0.00758917289
1.0128               0.580126859   0.00760663795      0.301188043      179.934056      0.301188028      179.933946      0.579601209   0.00757460812
1.013                0.584891952    0.0075889528       0.30612287      179.934596       0.30612285      179.934486      0.584361728   0.00755674317
1.0132                0.58973677   0.00756801335      0.311139099      179.935154      0.311139074      179.935045      0.589201899   0.00753563454
1.0134               0.594663309   0.00754387687      0.316238741      179.935731      0.316238711      179.935622      0.594123714   0.00751133956
1.0136               0.599673631   0.00751660142      0.321423876      179.936324      0.321423841      179.936216      0.599129234   0.00748391625
1.0138               0.604769868   0.00748624576      0.326696654      179.936934      0.326696613      179.936826      0.604220588   0.00745342339
1.014                0.609954222   0.00745286937      0.332059295      179.937559       0.33205925      179.937452      0.609399978   0.00741992048
1.0142               0.615228975   0.00741653252      0.337514099      179.938199      0.337514048      179.938092      0.614669682   0.00738346775
1.0144               0.620596485   0.00737729606      0.343063442      179.938854      0.343063385      179.938747      0.620032056   0.00734412611
1.0146               0.626059194   0.00733522161      0.348709784      179.939522      0.348709721      179.939415      0.625489541   0.00730195713
1.0148               0.631619629   0.00729037144      0.354455671      179.940202      0.354455603      179.940097      0.631044661   0.00725702311
1.015                0.637280408   0.00724280846      0.360303741      179.940895      0.360303666       179.94079      0.636700031   0.00720938692
1.0152               0.643044242   0.00719259624      0.366256723      179.941599      0.366256642      179.941495      0.642458361   0.00715911213
1.0154               0.648913942   0.00713979896      0.372317447      179.942314      0.372317359       179.94221      0.648322458   0.00710626291
1.0156               0.654892421   0.00708448139      0.378488844      179.943039       0.37848875      179.942936      0.654295231   0.00705090404
1.0158               0.660982697   0.00702670892      0.384773955      179.943774      0.384773854      179.943672      0.660379699   0.00699310086
1.016                0.667187904    0.0069665475      0.391175931      179.944518      0.391175824      179.944416       0.66657899    0.0069329193
1.0162               0.673511292    0.0069040636      0.397698043       179.94527      0.397697929      179.945169      0.672896353   0.00687042583
1.0164               0.679956235   0.00683932425      0.404343686       179.94603      0.404343564       179.94593      0.679335158   0.00680568743
1.0166               0.686526236   0.00677239698      0.411116381      179.946797      0.411116253      179.946698      0.685898904   0.00673877164
1.0168               0.693224932   0.00670334984      0.418019789      179.947571      0.418019653      179.947473      0.692591226   0.00666974642
1.017                0.700056106   0.00663225128       0.42505771      179.948351      0.425057566      179.948254      0.699415902   0.00659868026
1.0172               0.707023685   0.00655917026      0.432234095      179.949137      0.432233944       179.94904      0.706376857   0.00652564202
1.0174               0.714131757   0.00648417615       0.43955305      179.949928      0.439552892      179.949832      0.713478175   0.00645070104
1.0176               0.721384572   0.00640733869      0.447018849      179.950723      0.447018683      179.950628        0.7207241   0.00637392705
1.0178               0.728786552   0.00632872803      0.454635936      179.951522      0.454635762      179.951428      0.728119053   0.00629539013
1.018                0.736342303   0.00624841467      0.462408936      179.952325      0.462408754      179.952232      0.735667634   0.00621516072
1.0182                0.74405662   0.00616646942      0.470342668      179.953131      0.470342478      179.953038      0.743374633   0.00613330959
1.0184                 0.7519345   0.00608296339       0.47844215      179.953939      0.478441952      179.953848      0.751245044    0.0060499078
1.0186               0.759981151   0.00599796799      0.486712613       179.95475      0.486712406      179.954659      0.759284068   0.00596502669
1.0188               0.768202003   0.00591155483       0.49515951      179.955562      0.495159295      179.955472      0.767497134   0.00587873783
1.019                0.776602724   0.00582379579       0.50378853      179.956375      0.503788306      179.956286        0.7758899   0.00579111301
1.0192               0.785189225   0.00573476293       0.51260561      179.957189      0.512605377      179.957101      0.784468275   0.00570222421
1.0194               0.793967684   0.00564452844      0.521616947      179.958003      0.521616705      179.957916      0.793238429   0.00561214356
1.0196                0.80294455   0.00555316465      0.530829016      179.958816      0.530828765      179.958731      0.802206808   0.00552094335
1.0198               0.812126567   0.00546074403      0.540248583       179.95963      0.540248323      179.959546      0.811380146   0.00542869592
1.02                 0.821520785   0.00536733908      0.549882723      179.960442      0.549882454      179.960359       0.82076549   0.00533547367
1.0202               0.831134582   0.00527302233      0.559738837      179.961253      0.559738558      179.961171      0.830370209    0.0052413491
1.0204               0.840975679   0.00517786635       0.56982467      179.962062      0.569824382      179.961981      0.840202018   0.00514639466
1.0206               0.851052166   0.00508194365      0.580148335      179.962868      0.580148038      179.962789      0.850268997   0.00505068277
1.0208               0.861372515   0.00498532669      0.590718331      179.963673      0.590718024      179.963594      0.860579615   0.00495428577
1.021                0.871945615   0.00488808783      0.601543568      179.964474      0.601543251      179.964396      0.871142749   0.00485727593
1.0212               0.882780786   0.00479029929      0.612633394      179.965271      0.612633067      179.965195      0.881967711   0.00475972537
1.0214               0.893887813   0.00469203311      0.623997616      179.966065      0.623997279       179.96599      0.893064279   0.00466170601
1.0216               0.905276975   0.00459336115      0.635646539      179.966855      0.635646192      179.966781       0.90444272    0.0045632896
1.0218               0.916959071   0.00449435501      0.647590987      179.967641       0.64759063      179.967568      0.916113825    0.0044645476
1.022                0.928945461     0.004395086      0.659842344      179.968421      0.659841977      179.968349      0.928088942   0.00436555121
1.0222               0.941248095    0.0042956251      0.672412587      179.969197      0.672412209      179.969126      0.940380011    0.0042663713
1.0224               0.953879558   0.00419604295      0.685314325      179.969967      0.685313936      179.969897      0.952999606   0.00416707834
1.0226               0.966853112   0.00409640977      0.698560843      179.970731      0.698560445      179.970663      0.965960974   0.00406774244
1.0228               0.980182736   0.00399679534       0.71216615      179.971489       0.71216574      179.971422      0.979278084   0.00396843322
1.023                0.993883183   0.00389726896      0.726145021      179.972241      0.726144601      179.972175      0.992965675   0.00386921983
1.0232                1.00797003   0.00379789938      0.740513061      179.972986       0.74051263      179.972922       1.00703931    0.0037701709
1.0234                1.02245974    0.0036987548      0.755286753      179.973725      0.755286311      179.973661       1.02151543   0.00367135444
1.0236                1.03736971    0.0035999028      0.770483532      179.974456      0.770483079      179.974393       1.03641143    0.0035728379
1.0238                1.05271838   0.00350141028      0.786121844      179.975179       0.78612138      179.975118       1.05174572   0.00347468801
1.024                 1.06852525   0.00340334348       0.80222123      179.975895      0.802220755      179.975835       1.06753779   0.00337697081
1.0242                1.08481101   0.00330576784        0.8188024      179.976603      0.818801914      179.976544       1.08380831   0.00327975161
1.0244                1.10159761   0.00320874804      0.835887329      179.977302      0.835886831      179.977245       1.10057921   0.00318309487
1.0246                1.11890836   0.00311234788      0.853499349      179.977993       0.85349884      179.977937       1.11787377   0.00308706425
1.0248                1.13676804   0.00301663032      0.871663262      179.978676      0.871662742      179.978621       1.13571675   0.00299172248
1.025                   1.155203   0.00292165734      0.890405452      179.979349       0.89040492      179.979295       1.15413449   0.00289713139
1.0252                1.17424131   0.00282748996      0.909754015      179.980013      0.909753471       179.97996       1.17315502   0.00280335176
1.0254                1.19391291   0.00273418814      0.929738901      179.980668      0.929738345      179.980616       1.19280826   0.00271044338
1.0256                1.21424973   0.00264181078       0.95039207      179.981313      0.950391502      179.981263        1.2131261   0.00261846494
1.0258                1.23528589   0.00255041565      0.971747662      179.981948      0.971747083      179.981899       1.23414263   0.00252747398
1.026                 1.25705788   0.00246005931      0.993842188      179.982574      0.993841597      179.982526       1.25589432   0.00243752688
1.0262                1.27960476   0.00237079714       1.01671474      179.983189       1.01671413      179.983142       1.27842018   0.00234867874
1.0264                1.30296841   0.00228268317       1.04040721      179.983794        1.0404066      179.983749       1.30176207   0.00226098342
1.0266                1.32719379   0.00219577014       1.06496458      179.984389       1.06496395      179.984344       1.32596489   0.00217449343
1.0268                1.35232921   0.00211010942       1.09043517      179.984973       1.09043453      179.984929       1.35107691   0.00208925986
1.027                 1.37842664    0.0020257509       1.11687098      179.985546       1.11687033      179.985504       1.37715005    0.0020053324
1.0272                 1.4055421   0.00194274302       1.14432804      179.986108       1.14432738      179.986067       1.40424029   0.00192275923
1.0274                1.43373603   0.00186113268       1.17286681      179.986659       1.17286613       179.98662       1.43240801     0.001841587
1.0276                1.46307376   0.00178096517       1.20255262      179.987199       1.20255193      179.987161       1.46171847   0.00176186077
1.0278                1.49362599   0.00170228416       1.23345619      179.987728       1.23345549      179.987691       1.49224231   0.00168362393
1.028                 1.52546936   0.00162513163       1.26565417      179.988246       1.26565345       179.98821        1.5240561    0.0016069182
1.0282                1.55868709   0.00154954783       1.29922978      179.988752       1.29922906      179.988717         1.557243   0.00153178355
1.0284                1.59336971   0.00147557117       1.33427357      179.989247       1.33427284      179.989213       1.59189344   0.00145825816
1.0286                1.62961589   0.00140323828       1.37088419       179.98973       1.37088344      179.989697       1.62810599   0.00138637835
1.0288                1.66753333   0.00133258386       1.40916935      179.990201       1.40916858      179.990169       1.66598826   0.00131617855
1.029                 1.70723985   0.00126364068       1.44924685      179.990661       1.44924608       179.99063       1.70565797   0.00124769125
1.0292                1.74886461   0.00119643951       1.49124586      179.991109       1.49124507      179.991079       1.74724416   0.00118094693
1.0294                1.79254951   0.00113100908       1.53530825      179.991545       1.53530745      179.991517        1.7908886   0.00111597403
1.0296                1.83845079   0.00106737606       1.58159023      179.991969       1.58158941      179.991942       1.83674736   0.00105279892
1.0298                1.88674085   0.00100556493       1.63026419      179.992382       1.63026336      179.992356       1.88499272  0.000991445792
1.03                   1.9376105  0.000945598048       1.68152088      179.992783       1.68152003      179.992757        1.9358153  0.000931936684
1.0302                1.99127137  0.000887495494        1.7355719      179.993172       1.73557104      179.993147       1.98942652  0.000874291382
1.0304                2.04795888  0.000831275103       1.79265261      179.993549       1.79265174      179.993525       2.04606161  0.000818527407
1.0306                2.10793571  0.000776952381       1.85302563      179.993914       1.85302474      179.993891       2.10598299  0.000764659952
1.0308                 2.1714958  0.000724540478        1.9169848      179.994267        1.9169839      179.994246       2.16948433  0.000712701853
1.031                 2.23896918  0.000674050141       1.98486006      179.994609       1.98485915      179.994589       2.23689536  0.000662663536
1.0312                2.31072767  0.000625489681       2.05702313      179.994939        2.0570222      179.994919       2.30858758  0.000614552988
1.0314                2.38719173  0.000578864921       2.13389433      179.995257       2.13389339      179.995239       2.38498104  0.000568375711
1.0316                2.46883868  0.000534179176        2.2159508      179.995564       2.21594984      179.995546       2.46655261   0.00052413469
1.0318                2.55621259  0.000491433206       2.30373643      179.995859       2.30373546      179.995842       2.55384589  0.000481830357
1.032                 2.64993647  0.000450625184       2.39787401      179.996143       2.39787301      179.996127       2.64748331  0.000441460553
1.0322                2.75072704  0.000411750671       2.49907998      179.996416       2.49907897        179.9964       2.74818091  0.000403020508
1.0324                2.85941309  0.000374802584        2.6081828      179.996677       2.60818178      179.996662       2.85676674    0.0003665028
1.0326                2.97695822  0.000339771164       2.72614572      179.996927       2.72614468      179.996913       2.97420351  0.000331897339
1.0328                3.10448948  0.000306643961       2.85409533      179.997166       2.85409427      179.997153       3.10161724  0.000299191336
1.033                 3.24333353  0.000275405806       2.99335773      179.997394       2.99335665      179.997382       3.24033336  0.000268369285
1.0332                3.39506284  0.000246038797       3.14550474      179.997611       3.14550364        179.9976       3.39192291  0.000239412945
1.0334                3.56155545  0.000218522276       3.31241362      179.997818        3.3124125      179.997808       3.55826218  0.000212301323
1.0336                3.74507294  0.000192832825       3.49634496      179.998014       3.49634382      179.998005       3.74161069  0.000187010663
1.0338                 3.9483636  0.000168944254        3.7000459      179.998201       3.70004473      179.998192       3.94471422  0.000163514439
1.034                 4.17480087  0.000146827594       3.92688837      179.998376       3.92688718      179.998368       4.17094308  0.000141783348
1.0342                4.42857171  0.000126451097       4.18105751      179.998542       4.18105629      179.998535       4.42448041   0.00012178531
1.0344                4.71493765  0.000107780243       4.46781251      179.998699       4.46781127      179.998692       4.71058289  0.000103485477
1.0346                 5.0406031  9.07777445e-05        4.7938548      179.998845       4.79385353      179.998839       5.03594878  8.68462357e-05
1.0348                5.41424637  7.54035633e-05        5.1678588      179.998983       5.16785749      179.998977       5.40924842  7.18272304e-05
1.035                 5.84730384  6.16149336e-05       5.60125574      179.999111        5.6012544      179.999106       5.84190768  5.83853834e-05
1.0352                6.35516019   4.9366393e-05       6.10942338      179.999231       6.10942199      179.999226        6.3492971  4.64749308e-05
1.0354                6.95901325  3.86098263e-05       6.71354993      179.999341       6.71354851      179.999337       6.95259506  3.60474705e-05
1.0356                7.68890604  2.92945297e-05       7.44366484      179.999444       7.44366336       179.99944       7.68181698  2.70520311e-05
1.0358                8.58887769  2.13673029e-05       8.34378719      179.999538       8.34378566      179.999535       8.58096152  1.94351761e-05
1.036                 9.72618811  1.47725971e-05       9.48114638      179.999624       9.48114478      179.999622       9.71722685   1.3141168e-05
1.0362                11.2089466  9.45276594e-06       10.9638025      179.999703       10.9638009      179.999701        11.198623  8.11225387e-06
1.0364                13.2226751  5.34854745e-06       12.9771931      179.999774       12.9771913      179.999773       13.2105013  4.28921676e-06
1.0366                 16.114706  2.40011667e-06       15.8684925      179.999839       15.8684907      179.999838       16.0998755  1.61258811e-06
1.0368                20.6197885  5.49814302e-07       20.3721157      179.999897       20.3721139      179.999897       20.6008197  2.58027228e-08
1.037                 28.6091113 -2.48931016e-07       28.3584008       179.99995       28.3583992       179.99995       28.5828043 -5.14464032e-07
1.0372                46.6727027  1.08202935e-08       46.4143852            -180       46.4143852            -180       46.6298065   1.0890803e-08
1.0374                126.372731  1.86544186e-06       126.078963     -179.999937        126.07899     -179.999936       126.256667  2.23532061e-06
1.0376                  179.0862             180       179.239583 -4.18747594e-08       179.239485 -4.18744643e-08       178.921621             180
1.0378                52.4524005     -179.999996       52.6636064  6.65787831e-05       52.6635952  6.72092282e-05       52.4042405     -179.999996
1.038                 30.7412364     -179.999993       30.9617571  9.53625682e-05       30.9617526  9.63103917e-05       30.7130264     -179.999992
1.0382                21.7496906     -179.999989       21.9736842  0.000115440579       21.9736818  0.000116648324       21.7297422     -179.999988
1.0384                16.8325244     -179.999985       17.0581178  0.000129836602       17.0581163  0.000131270848       16.8170939     -179.999984
1.0386                13.7319886      -179.99998       13.9583432  0.000139581895       13.9583423   0.00014121557       13.7194071     -179.999979
1.0388                 11.598379     -179.999976       11.8250451  0.000145270806       11.8250446  0.000147079307        11.587758     -179.999974
1.039                 10.0404322     -179.999971       10.2671392  0.000147357082       10.2671388   0.00014931702        10.031243     -179.999969
1.0392                8.85289407     -179.999966       9.07946496  0.000146238527       9.07946479  0.000148327242       8.84479633     -179.999964
1.0394                7.91772413      -179.99996       8.14403579  0.000142287402       8.14403575  0.000144482732       7.91048599     -179.999959